material_id,formula,formation_energy,ehull,band_gap,is_magnetic,magnetic_ordering,total_magnetization,spacegroup
mp-1517550,Ba2TbPrO6,-2.981858165833332,0.166689307375004,0.0,True,FM,1.9999985999999992,225
mp-6265,Ba2TbSbO6,-3.084002428666667,0.0,3.507199999999999,False,NM,9e-06,225
mp-1228305,Ba2TbSnO6,-2.9049901061666663,0.017417447687508,0.0,False,NM,0.999978199999999,225
mp-1207065,Ba2TbTaO6,-3.5691517354,0.0020847859999990003,3.371,False,NM,1.3e-06,225
mp-1516516,Ba2TbWO6,-3.071724578666669,0.068983662999997,0.0,True,FM,0.925724099999999,225
mp-1520765,Ba2TbZrO6,-3.376336468666667,0.056445788437510004,0.0,False,NM,1.0,225
mp-866292,Ba2TlCd,-0.367555368333333,0.0,0.0,False,NM,0.001506999999999,225
mp-1183313,Ba2TlHg,-0.47277847645833404,0.0,0.0,False,NM,0.0025829,225
mp-1228332,Ba2TlSbO6,-2.281407364333334,0.0,0.0,False,NM,6.76e-05,225
mp-984724,Ba2TlZn,-0.29199189083333404,0.0,0.0,False,NM,0.000301799999999,225
mp-1205595,Ba2TmMoO6,-3.068558652,0.0,0.0,True,FM,0.999998899999999,225
mp-12642,Ba2TmNbO6,-3.4924325310000013,0.0,2.8502,False,NM,0.0,225
mp-1206036,Ba2TmPaO6,-3.77579143,0.0,3.4494,False,NM,5.099999999999999e-06,225
mp-13934,Ba2TmReO6,-3.07167965825,0.0,0.0,True,FM,2.0035358,225
mp-12729,Ba2TmRuO6,-2.876566269,0.0,0.0645,True,FM,3.0009044,225
mp-1206029,Ba2TmTaO6,-3.612670555733333,0.0,3.4065,False,NM,0.0,225
mp-1205751,Ba2UBeO6,-3.230522032499999,0.15563175724997202,1.7398999999999991,False,NM,6.610000000000002e-05,225
mp-1079615,Ba2UCdO6,-3.106356700999999,0.0,1.8464,False,NM,2e-07,225
mp-1063920,Ba2UCo,1.313328620000001,1.441160643125,0.0,True,FiM,3.3274722,225
mp-20966,Ba2UCoO6,-3.003749728999999,0.027083486416655003,0.0,True,FM,2.999908,225
mp-1205611,Ba2UCrO6,-3.282478179999999,0.0,0.9356999999999991,True,FiM,2.0074143,225
mp-504699,Ba2UFeO6,-3.109767488999999,0.0,0.5156000000000001,True,FM,6.0022379,225
mp-1206032,Ba2UGeO6,-3.053736796499999,0.14691883658333701,0.6334000000000001,False,NM,0.0010956,225
mp-1205945,Ba2UHgO6,-2.90438639525,0.08084312974999501,1.6345,False,NM,0.0006007,225
mp-19852,Ba2UMnO6,-3.260499004793104,0.0,0.06130000000000001,True,FM,5.0104359,225
mp-19093,Ba2UNiO6,-3.084455379999998,0.0,1.6246,True,FM,1.9877867,225
mp-1080842,Ba2UPbO6,-3.040996817999999,0.028178937249997003,1.194599999999999,False,NM,3.0400000000000004e-05,225
mp-1205557,Ba2UTiO6,-3.5085369283333323,0.0,0.0,True,FM,1.998872599999999,225
mp-1078725,Ba2UZnO6,-3.176747228999998,0.0,1.786299999999999,False,NM,0.0,225
mp-1522771,Ba2VBiO6,-2.548162820000001,0.134240265375003,1.1225,False,NM,0.0,225
mp-1096778,Ba2VFeO6,-0.42146811100000003,2.2720075554999912,0.0,True,FiM,1.0852104,225
mp-1096782,Ba2VFeO6,-2.592685414,0.10079025249999,1.0389,True,FM,4.9977207,225
mp-1079477,Ba2VMoO6,-2.6755853955,0.083071706249999,0.40029999999999905,True,AFM,8e-07,225
mp-23137,Ba2YBiO6,-2.8078685930000002,0.0030075345000030005,1.8236999999999992,False,NM,0.0,225
mp-15888,Ba2YIrO6,-2.761594729999999,0.0,0.0,True,FM,2.0,225
mp-1205669,Ba2YMoO6,-3.021668231999999,0.0,0.0,True,FM,1.0006089,225
mp-7251,Ba2YNbO6,-3.444694518,0.0,2.8514,False,NM,0.0,225
mp-1078303,Ba2YOsO6,-2.862705703999999,0.0,0.055099999999999004,True,FM,2.9981856000000002,225
mp-1205895,Ba2YPaO6,-3.728716805,0.0,3.491999999999999,False,NM,0.0,225
mp-6430,Ba2YReO6,-3.026363982249999,0.0,0.0,True,FM,2.0007899,225
mp-6428,Ba2YRuO6,-2.831114415,0.0,0.0903,True,FM,3.0002985,225
mp-14226,Ba2YSbO6,-0.9981449470000001,2.077800917,0.0,False,NM,0.2729607,225
mp-6492,Ba2YSbO6,-3.075945864,0.0,3.5377,False,NM,0.0,225
mp-6613,Ba2YTaO6,-3.5658466267333333,0.001594408,3.362,False,NM,0.0,225
mp-1205713,Ba2YUO6,-3.642864564999999,0.0,0.8651999999999991,True,FM,1.0000002,225
mp-1205685,Ba2YZrO6,-3.376829246,0.048875723437511,0.0,False,NM,1.0008354,225
mp-1205934,Ba2YbMoO6,-3.115867185750002,0.0,2.2435,True,FM,1.0,225
mp-19751,Ba2YbNbO6,-3.3757481147500012,0.0,0.0,False,NM,0.0,225
mp-1205639,Ba2YbPaO6,-3.671142661750002,0.0,0.0,False,NM,0.0,225
mp-13935,Ba2YbReO6,-2.933922713000001,0.0,0.0,True,FM,2.0,225
mp-12730,Ba2YbRuO6,-2.782053713250002,0.0,0.0,True,FM,3.0,225
mp-14223,Ba2YbSbO6,-0.47686356975000305,2.521150947999997,0.0,True,FM,1.2392028,225
mp-14294,Ba2YbSbO6,-2.998014517750002,0.0,0.0,False,NM,0.0,225
mp-7127,Ba2YbTaO6,-3.509662673483333,0.0,0.0,False,NM,0.0,225
mp-1205759,Ba2YbUO6,-3.618445308250002,0.0,2.1684,True,FM,1.0000015,225
mp-984784,Ba2ZnCd,-0.23247237749999902,0.007584713333333001,0.0,False,NM,2.6e-06,225
mp-1183301,Ba2ZnHg,-0.346780513124999,0.003688293333333,0.0,False,NM,1.3e-06,225
mp-1183381,Ba2ZnIn,-0.28408468666666603,0.009561917083334,0.0,False,NM,0.0061379,225
mp-1206097,Ba2ZnMoO6,-2.540304109,0.0,2.385199999999999,False,NM,0.00014539999999900002,225
mp-1205691,Ba2ZnOsO6,-2.295212536999999,0.0,0.0,True,FM,1.999978,225
mp-549970,Ba2ZnReO6,-2.533858086249999,0.016982601499977,0.0,True,FM,1.0000258,225
mp-1078410,Ba2ZnTeO6,-2.367489561666666,0.0,0.444399999999999,False,NM,0.0,225
mp-548615,Ba2ZnWO6,-2.6546294450000003,0.0,3.3679,False,NM,0.0,225
mp-1228073,Ba2ZrInO6,-2.910161960666667,0.029283884375006,0.0,False,NM,1.0018903,225
mp-1228067,Ba2ZrSnO6,-3.1393160845,0.0,3.6894,False,NM,6.740000000000001e-05,225
mp-1078457,Ba2ZrTiO6,-3.5609177323333343,0.004841601999968,2.2161,False,NM,0.0001906,225
mp-1205832,Ba2ZrUO6,-3.540528917999999,0.022321530000002,0.0,True,FM,2.0003779,225
mp-1228086,Ba2ZrWO6,-3.054233885,0.076474615249987,0.0,True,FM,1.9999993999999992,225
mp-1202832,Ba38Na58Li26H,0.0024165326185640002,0.017657212737204,0.054700000000000006,False,NM,8.7320707,216
mp-570185,Ba38Na58Li26N,-0.010579917899728002,0.011304397025044,0.030500000000000003,False,NM,0.0464199,216
mp-1183350,Ba3Eu,0.034673871249999,0.034673871249999,0.0,True,FM,7.8853238999999995,225
mp-554066,Ba3Lu2Zn5O11,-2.6729634499206343,0.001684299821428,2.400299999999999,False,NM,0.0019459999999990002,216
mp-1183323,Ba3Mn,0.46834242301724105,0.46834242301724105,0.0,True,FM,3.8862787,225
mp-1183316,Ba3Mo,0.8903929474999991,0.8903929474999991,0.0,True,FM,2.7567386,225
mp-1205495,Ba3MoO6,-2.673427223,0.048761215500002,2.2259,False,NM,7.650000000000003e-05,225
mp-1183322,Ba3Nb,0.7857501925000001,0.7857501925000001,0.0,True,FM,3.4909157,225
mp-1076925,Ba3Np,0.679833552812499,0.679833552812499,0.0,True,FM,4.9572186,225
mp-1205571,Ba3PuO6,-2.996677969874999,0.0,0.3789,False,NM,0.0461433,225
mp-1183330,Ba3Sr,0.0023644074999990003,0.0035189374999990003,0.0,False,NM,5.2e-06,225
mp-1206273,Ba3UO6,-3.307360320999998,0.022950849750001,2.157199999999999,False,NM,0.000102799999999,225
mp-22086,Ba3WO6,-2.797657593999999,0.067516376999999,2.9798,False,NM,4.53e-05,225
mp-560544,Ba3Zn5In2O11,-2.182818506825396,0.0,1.772599999999999,False,NM,0.0003528,216
mp-755610,Ba6HfO8,-3.092502083333333,0.06374223066666801,2.5859,False,NM,1.15e-05,225
mp-996942,Ba6In2NF,-0.9321422353333331,0.026404899275863,0.0,False,NM,0.024279199999999,225
mp-568512,Ba6Mg23,-0.050287461896550006,0.0,0.0,False,NM,1.13872,225
mp-989542,Ba6Tl2NCl,-0.7124858671666681,0.020639006000002003,0.0,False,NM,1.8859519,225
mp-755556,Ba6ZrO8,-3.0589600226666662,0.04802963466666801,2.691799999999999,False,NM,8.36e-05,225
mp-567157,Ba7Na5Li3N3,-0.256100783160919,0.037716403992064,0.0,False,NM,0.001976899999999,216
mp-1100397,BaAuCl,-1.427983426666666,0.426359191666665,1.9625999999999992,False,NM,0.0003492,216
mp-631532,BaBe2Te,0.416782308333333,1.4185696375,0.0,False,NM,0.008570000000000001,225
mp-631517,BaBeGa,0.8494060525,1.108099471602564,0.0,False,NM,0.057724599999999,216
mp-23438,BaBiO3,-2.208540844,0.024886166999999,0.0,False,NM,0.0002449,225
mp-1100395,BaBrCl,-2.768585671666667,0.020614121666665,4.9392,False,NM,6e-06,216
mp-997616,BaC,1.394465722499999,1.442161000833333,0.0,True,FM,1.9998288999999991,225
mp-2034795,BaCa3,0.04277325124999801,0.04277325124999801,0.0,False,NM,1.699999999999999e-06,225
mp-1522558,BaCaBiSbO6,-2.331821444,0.16117884308333202,1.6858,False,NM,0.0,216
mp-1516242,BaCaCeCrO6,-2.9506757369999983,0.20835990856251002,0.0,True,FM,2.0000001,216
mp-1519944,BaCaCeFeO6,-2.781431761999999,0.135918366875003,0.0,True,FM,3.9999997,216
mp-1518962,BaCaCeGeO6,-3.039447311499999,0.185086884333339,1.9787000000000001,False,NM,0.0,216
mp-1521558,BaCaCeHfO6,-3.555891472,0.17682259100000203,2.376899999999999,False,NM,0.0,216
mp-1516542,BaCaCeNbO6,-3.254010298999999,0.204025410812496,0.0,True,FM,1.0,216
mp-1518826,BaCaCeNiO6,-2.581559159999999,0.167808813999999,1.255999999999999,False,NM,0.0,216
mp-1521263,BaCaCeSnO6,-3.0094517685,0.14758609149999402,2.2724,False,NM,0.0,216
mp-1521898,BaCaCeTiO6,-3.436572658333332,0.150885854124997,2.1876,False,NM,0.0,216
mp-1517628,BaCaCeZrO6,-3.473519771,0.185457312,2.4204,False,NM,0.0,216
mp-1517595,BaCaCrBiO6,-2.277217755,0.20123734399999002,0.1804,True,FM,3.0000004,216
mp-1516519,BaCaCrSbO6,-2.567483896999999,0.127195710875004,1.2601,True,FM,3.0003493,216
mp-1517268,BaCaCrSnO6,-2.469591363499999,0.19508881125000802,0.0,True,FM,2.0000004,216
mp-1521412,BaCaCuBiO6,-1.891478206,0.180042151562498,0.0,False,NM,9.3e-06,216
mp-1520391,BaCaDyBiO6,-2.711973607166666,0.09940713487499701,1.908599999999999,False,NM,0.0,216
mp-1517283,BaCaDyFeO6,-2.626445923166666,0.13115893237499202,0.1723,True,FiM,3.0000004,216
mp-1516601,BaCaDyNbO6,-3.357578071166665,0.129067714625,2.856,False,NM,0.0,216
mp-1521128,BaCaDySbO6,-3.005607106166667,0.08522813350000301,3.3728,False,NM,0.0,216
mp-1519032,BaCaDyVO6,-3.100416336166667,0.19197504976191201,1.6048,False,NM,0.0,216
mp-1516643,BaCaEuBiO6,-2.465123670500001,0.203358463916669,0.0,True,FM,5.9999999,216
mp-1523088,BaCaEuBiO6,-2.428301884500001,0.24018024991666903,0.0,True,FM,5.9999998,216
mp-1519654,BaCaEuFeO6,-2.4060208605,0.21161568937499903,0.0,True,FM,9.000002,216
mp-1516524,BaCaEuNbO6,-3.0836260655,0.26305141462500004,0.0,True,FM,6.0000002,216
mp-1518229,BaCaEuNbO6,-3.0945622705,0.252115209624999,0.0,True,FM,6.0,216
mp-1520952,BaCaEuSbO6,-2.7428489335000013,0.19564184350000202,0.0,True,FM,6.0000003,216
mp-1521158,BaCaEuSbO6,-2.749125657500001,0.189365119500002,0.0,True,FM,6.0000001,216
mp-1516685,BaCaEuSeO6,-2.520960902734376,0.22791094087500902,0.0,True,FM,6.9685089,216
mp-1521024,BaCaEuWO6,-2.9664147825000002,0.083413675729161,0.5857999999999991,True,FM,7.0,216
mp-1522833,BaCaEuWO6,-2.8449373375,0.20489112072915902,0.0,True,FM,6.9999996,216
mp-1519427,BaCaFeBiO6,-2.147983424,0.094611980999995,0.22160000000000002,True,FM,5.0000004,216
mp-1521698,BaCaFeWO6,-2.498643676,0.15769658925000102,0.0,True,FiM,3.999999899999999,216
mp-1519159,BaCaGaBiO6,-2.26221530575,0.13441416322916402,0.0373,False,NM,0.0,216
mp-1523232,BaCaGdBiO6,-2.671635551,0.110625371874997,1.701099999999999,True,FM,6.9999999,216
mp-1516983,BaCaGdNbO6,-3.309836871999999,0.14940041687500002,2.561599999999999,True,FM,7.0000002,216
mp-1521194,BaCaGdSbO6,-2.961382866,0.099969821583338,3.2399,True,FM,7.0000002,216
mp-1521804,BaCaHfNbO6,-3.380671266999999,0.121074810656251,0.0,False,NM,0.0353277,216
mp-1520046,BaCaHfSnO6,-3.1432076715,0.09742717725000101,3.618199999999999,False,NM,0.0,216
mp-1521252,BaCaHfWO6,-3.056130819,0.180937930749996,0.0,True,FM,2.0,216
mp-1516790,BaCaHfZrO6,-3.635092758,0.09499661900002601,3.3163,False,NM,0.0,216
mp-1518191,BaCaInBiO6,-2.181698492666666,0.129420569333333,0.0,False,NM,1.1e-06,216
mp-1520258,BaCaInSbO6,-2.465377789666667,0.11587727616666701,0.9295,False,NM,0.0,216
mp-1522285,BaCaLaBiO6,-2.622496966500001,0.156553535999987,2.2304,False,NM,0.0,216
mp-39886,BaCaLaBiO6,-2.6199799065000002,0.15907059599998702,2.154,False,NM,0.000102799999999,216
mp-1522593,BaCaLaSbO6,-2.9069047755,0.15899457449999801,3.219799999999999,False,NM,0.0,216
mp-1518884,BaCaMnSnO6,-2.428504817293105,0.16374514308333402,0.0,True,FM,3.000105,216
mp-1516715,BaCaMnWO6,-2.670369828793103,0.09189259025000601,1.885199999999999,True,FM,5.0000003,216
mp-1518821,BaCaNbInO6,-2.8764868576666673,0.10741433012500401,3.4029,False,NM,0.0,216
mp-1519910,BaCaNbWO6,-2.81802165,0.158354321222232,0.7630999999999991,True,FM,2.999999899999999,216
mp-1522813,BaCaNdBiO6,-2.610041730749999,0.155742996499993,2.0717,False,NM,0.0,216
mp-1519220,BaCaNdFeO6,-2.54051799775,0.162390763916674,0.5867,True,FM,3.0000003,216
mp-1516793,BaCaNdMnO6,-2.661205270543104,0.20034748808334502,0.0,True,FM,2.9722153000000002,216
mp-1517966,BaCaNdMnO6,-2.661427052543104,0.200125706083345,0.0,True,FiM,1.9999997,216
mp-1519688,BaCaNdNbO6,-3.236454222750001,0.19431695349999903,2.8393,False,NM,0.0,216
mp-1521716,BaCaNdSbO6,-2.90037271775,0.133363127333333,3.2332,False,NM,0.0,216
mp-1517136,BaCaNiBiO6,-1.8902072939999992,0.16568850544444602,0.0,True,FM,1.0000003,216
mp-1522981,BaCaPrBiO6,-2.585965672166667,0.16927668775000101,2.094999999999999,False,NM,0.0,216
mp-1520023,BaCaPrFeO6,-2.505544629166666,0.186114899108331,0.219199999999999,True,FM,2.999999599999999,216
mp-1517193,BaCaPrSbO6,-2.875172902166666,0.14419659649999902,3.189399999999999,False,NM,0.0,216
mp-1521701,BaCaPrSbO6,-2.877298764166666,0.14207073449999902,2.9508,False,NM,0.0,216
mp-631512,BaCaRu2,0.8395265075,0.8395265075,0.0,False,NM,0.0006272,216
mp-1100437,BaCaSi,0.091361406666666,0.48506871583333405,0.39069999999999905,False,NM,0.0005547999999990001,216
mp-1516958,BaCaSmBiO6,-2.648081016500001,0.133193991874992,2.0601,False,NM,0.0,216
mp-1519954,BaCaSmFeO6,-2.5657069865,0.15612454093748102,0.19720000000000001,True,FM,3.0000003,216
mp-1521831,BaCaSmFeO6,-2.516237280499999,0.20559424693748202,0.6061000000000001,True,FM,3.0000002,216
mp-1522001,BaCaSmMnO6,-2.702946084293104,0.17870795577084903,0.0,True,FiM,2.0000002,216
mp-1522614,BaCaSmNbO6,-3.2812021155,0.16967034218749902,2.8486000000000002,False,NM,0.0,216
mp-1518047,BaCaSmSbO6,-2.9395649555,0.11179481591666401,3.280499999999999,False,NM,0.0,216
mp-1518342,BaCaSnWO6,-2.5340102095,0.139120756874998,2.583499999999999,False,NM,0.0,216
mp-1518866,BaCaTbBiO6,-2.701063237666666,0.10685029784374701,1.9458000000000002,False,NM,0.0,216
mp-1521829,BaCaTbFeO6,-2.616356252666667,0.135532426312481,0.180099999999999,True,FiM,3.0000005,216
mp-1520770,BaCaTbNbO6,-3.343693335666666,0.1372362735625,2.852999999999999,False,NM,0.0,216
mp-1517107,BaCaTbSbO6,-2.994353552666666,0.090595325000003,3.337999999999999,False,NM,0.0,216
mp-1519885,BaCaTbSnO6,-2.799010109166667,0.179047998937496,0.0,False,NM,1.0,216
mp-1521723,BaCaTbTiO6,-3.244659401,0.170089382874997,0.0,False,NM,0.999999899999999,216
mp-1522202,BaCaYNbO6,-3.34302936,0.130822961562499,2.8545,False,NM,0.0,216
mp-1520388,BaCaYSbO6,-2.9886775610000003,0.087604491968754,3.375,False,NM,0.0,216
mp-1517517,BaCaYVO6,-3.084479229,0.195118692699411,1.620299999999999,False,NM,0.0,216
mp-979986,BaCaYb2,0.36463231624999504,0.36463231624999504,0.0,False,NM,0.0047313,225
mp-1519061,BaCaZrNbO6,-3.313915328,0.11367458837499402,0.0,False,NM,0.0002061,216
mp-1519645,BaCaZrSnO6,-3.0648371135,0.10206075525000101,3.7375,False,NM,0.0,216
mp-1519763,BaCaZrWO6,-2.979708477,0.194257001583331,0.0,True,FM,1.9999999,216
mp-1517518,BaCeEuCrO6,-3.026705817499999,0.232185467624994,0.0,True,FiM,4.2425781,216
mp-1516530,BaCeEuHfO6,-3.6012802255,0.24149168950000002,0.174599999999999,True,FM,7.0000145,216
mp-1522488,BaCeEuNbO6,-3.2981535765,0.11854553559999201,0.0,True,FiM,5.9999994999999995,216
mp-1523236,BaCeEuNiO6,-2.648304700499999,0.27633820474999504,0.0,True,FM,6.9999998,216
mp-1522608,BaCeEuSbO6,-2.9282024965,0.23139375112500102,0.0,True,FM,7.9924321,216
mp-1519018,BaCeEuWO6,-2.971880385499999,0.215459301625003,0.0,True,FM,8.9999999,216
mp-1520190,BaCeInSbO6,-2.619405720666665,0.17741423462500103,0.310499999999999,False,NM,0.0,216
mp-1518977,BaCeNbInO6,-2.996178317666666,0.13918364197222902,0.7648,False,NM,0.0,216
mp-568662,BaCl2,-2.96823858,0.0,5.4291,False,NM,2.8900000000000005e-05,225
mp-1519687,BaCrInWO6,-2.233422985666665,0.17029399758333902,0.1824,True,FM,2.999999899999999,216
mp-1518013,BaCrSnBiO6,-2.1325920485,0.16322083350000402,0.9540999999999991,True,FM,3.0,216
mp-1104410,BaDyFe4O7,-2.054818176666666,0.19507973233516201,0.0,True,FM,17.0039776,216
mp-1516760,BaDyNbSnO6,-2.971384259666666,0.16032216287501203,2.4437,False,NM,0.0,216
mp-1519551,BaDySnSbO6,-2.615478972666666,0.169679482125001,2.6502,False,NM,0.0,216
mp-1214416,BaErFe4O7,-2.169366593461539,0.090540607335162,0.0,True,FM,16.9993051,216
mp-1183367,BaEu3,0.071017978749996,0.071017978749996,0.0,True,FM,22.3298458,225
mp-1519850,BaEuBiSbO6,-2.374715463500001,0.15412113000000202,0.09440000000000001,True,FM,6.9999998,216
mp-1522588,BaEuCrBiO6,-2.3439742825,0.23790122431250502,0.0,True,FM,9.8525267,216
mp-1522613,BaEuCrSnO6,-2.568088292999999,0.17858592450000002,0.0,True,FiM,3.7363950999999993,216
mp-1520404,BaEuDyMnO6,-2.888322498459771,0.219204522833322,0.0,True,FM,9.0000001,216
mp-1520401,BaEuDySbO6,-3.038451721666666,0.102169171299992,0.408599999999999,True,FM,7.0000002,216
mp-1521440,BaEuDySnO6,-2.921785893166666,0.23450282700000102,0.0,True,FM,5.9999942,216
mp-1516727,BaEuDyVO6,-3.117460697666667,0.20021269845453502,0.0907,True,FM,6.9375644,216
mp-1518576,BaEuDyWO6,-3.026760313666666,0.14688242524998701,0.0,True,FM,8.0324534,216
mp-1517846,BaEuFeBiO6,-2.2146952665,0.19008421650000001,0.0,True,FM,11.496092,216
mp-1521180,BaEuFeSnO6,-2.374925717000001,0.206874396499999,0.0,True,FM,10.9999804,216
mp-1519016,BaEuHfNbO6,-3.4130699325,0.052069121000002,0.0,True,FM,6.8874179,216
mp-1522152,BaEuHfSnO6,-3.169755354000001,0.06428916881249601,0.4308,True,FM,6.9999999,216
mp-1517277,BaEuHfZrO6,-3.6694066805,0.044046088250000004,0.42659999999999904,True,FM,7.0000002,216
mp-1523076,BaEuInBiO6,-2.253879272166667,0.22264421950000202,0.0,True,FM,6.8181389,216
mp-1516957,BaEuInWO6,-2.499286957166666,0.171611183750002,0.0,True,FM,7.9999803,216
mp-1518485,BaEuNbBiO6,-2.741787820500001,0.18416333958333703,0.8959,True,FM,6.9999999,216
mp-1521186,BaEuNbInO6,-2.910310048166667,0.07525989534999501,0.681,True,FM,6.999975,216
mp-1518210,BaEuNbSbO6,-2.7394866135000013,0.204799594416673,0.8037999999999991,True,FM,7.0,216
mp-1517961,BaEuNbSnO6,-2.776659752999999,0.201610685083347,0.0,True,FM,7.0134971,216
mp-1520777,BaEuSnBiO6,-2.342527127,0.22293195199999102,0.0,True,FM,6.5152197,216
mp-1516693,BaEuSnWO6,-2.430615324,0.231125141999994,0.8804999999999991,True,FM,6.9999999,216
mp-1518412,BaEuTiBiO6,-2.7799860948333333,0.237877837000002,0.0,True,FM,6.6048473,216
mp-1521044,BaEuVBiO6,-2.496060778500001,0.24946722118750303,0.133599999999999,True,FM,7.0,216
mp-1522177,BaEuVSnO6,-2.659563586000001,0.149580020604169,0.0,True,FiM,5.4882212,216
mp-1522617,BaEuYBiO6,-2.7409457465,0.22552887893748602,0.0,True,FM,6.9724817,216
mp-1517793,BaEuYCrO6,-2.8921163335,0.267795350249995,0.0,True,FM,8.0,216
mp-1518354,BaEuYSbO6,-3.0211638965,0.104604813187503,0.42900000000000005,True,FM,7.0000002,216
mp-1518414,BaEuYSnO6,-2.9054609079999993,0.23803434793750103,0.0,True,FM,6.0031398,216
mp-1521291,BaEuYVO6,-3.132039279500001,0.172353007039761,0.06920000000000001,True,FM,6.9626725,216
mp-1520429,BaEuYWO6,-3.0126252545,0.154226744958318,0.0,True,FM,8.0000003,216
mp-1523280,BaEuZrNbO6,-3.3493691235,0.06010360025000001,0.0,True,FM,6.6693043,216
mp-1516299,BaEuZrSnO6,-3.095200495,0.070763590000016,0.7465,True,FM,7.0000001,216
mp-1029,BaF2,-4.162401843333335,0.0,6.6029,False,NM,0.0,225
mp-1518724,BaGdCrFeO6,-5.153567591,0.0,0.0,True,FiM,9.6463861,216
mp-1516504,BaGdInWO6,-2.703644507666666,0.08836663545833301,1.6715,True,FM,7.0000002,216
mp-1521883,BaGdNbSnO6,-2.9272536805000002,0.182424831299995,2.1665,True,FM,7.0000002,216
mp-631556,BaGe2B,0.738176705208333,1.189162289531251,0.0,False,NM,0.0025134,216
mp-631569,BaHf2As,0.560619055625,1.224289447531251,0.0,True,FM,1.633959599999999,225
mp-1522084,BaHfInSbO6,-2.6433599906666663,0.186448557250001,0.7294,False,NM,0.0,216
mp-631500,BaHfMg2,0.5863739375,0.6252702681250001,0.0,False,NM,0.000101099999999,216
mp-631521,BaHfMo,1.187178816666667,1.273083171666665,0.0,False,NM,0.0002262,216
mp-1516647,BaHfNbInO6,-3.0663349996666662,0.096817413222229,0.622799999999999,False,NM,0.0,216
mp-1522487,BaHfTiInO6,-3.104368333000001,0.19047073381944502,0.0,False,NM,8e-07,216