material_id,formula,formation_energy,ehull,band_gap,is_magnetic_x,magnetic_ordering,total_magnetization_x,spacegroup,heusler_type,is_magnetic_y,total_magnetization_y
mp-31454,TaSbRu,-0.460370547444441,0.0,0.665,False,NM,0.0,216,half,False,0.0
mp-1187251,TaSiRu2,-0.549483269020839,0.031938650208331,0.0,True,FM,0.8069002,225,full,True,0.8069002
mp-1100408,TaSnRh,-0.440287004111108,0.0,1.0594,False,NM,0.0,216,half,False,0.0
mp-867475,TaSnRu2,-0.304171011833332,0.003444711031743,0.0,True,FM,0.934578399999999,225,full,True,0.934578399999999
mp-1187252,TaTc2Ge,-0.350766186833332,0.015996063625003,0.0,False,NM,0.0001372,225,full,False,0.0001372
mp-632176,TaTcPb2,0.692369155666661,0.9762442325,0.0,False,NM,8.11e-05,216,full,False,8.11e-05
mp-631484,TaTiAl,0.7705011500000011,1.096006877666667,0.0,True,FM,1.907300499999999,216,half,True,1.907300499999999
mp-979751,TaTiFe2,-0.285071920166666,0.018473990384615,0.0,True,FiM,1.0032754,225,full,True,1.0032754
mp-867821,TaTiMn2,-0.278126184132183,0.0,0.0,True,FiM,0.6171553,225,full,True,0.6171553
mp-867123,TaTiOs2,-0.5868449210000081,0.0,0.0,False,NM,1.6000000000000003e-05,225,full,False,1.6000000000000003e-05
mp-867846,TaTiRe2,-0.525172387250002,0.0,0.0,False,NM,0.000121,225,full,False,0.000121
mp-861908,TaTiRu2,-0.6045244860000021,0.0,0.0,False,NM,0.000425,225,full,False,0.000425
mp-861912,TaTiTc2,-0.571864508499999,0.0,0.0,False,NM,5.7e-06,225,full,False,5.7e-06
mp-961712,TaTlPt,-0.03542330688889,0.336461404333328,0.9663,False,NM,0.0012729,216,half,False,0.0012729
mp-865805,TaZnCo2,-0.21700233183332,0.0,0.0,True,FiM,1.0450602,225,full,True,1.0450602
mp-979291,TaZnOs2,-0.210690350583334,0.040938130624986,0.0,False,NM,2.11e-05,225,full,False,2.11e-05
mp-865804,TaZnRh2,-0.5910538055833351,0.0,0.0,False,NM,2.4800000000000003e-05,225,full,False,2.4800000000000003e-05
mp-865234,TaZnRu2,-0.344226414333334,0.0,0.0,False,NM,4.27e-05,225,full,False,4.27e-05
mp-979270,Tb2AgIr,-0.5895928137499981,0.022065156793479,0.0,False,NM,0.001578599999999,225,full,False,0.001578599999999
mp-1187272,Tb2CuIr,-0.5766730508333321,0.023550786249996,0.0,False,NM,0.0021289,225,full,False,0.0021289
mp-1187276,Tb2InHg,-0.5945378518749961,0.0,0.0,True,FM,0.6508565,225,full,True,0.6508565
mp-1187265,Tb2IrAu,-0.8191927308333321,0.017533978571426,0.0,False,NM,0.0038372,225,full,False,0.0038372
mp-867236,Tb2IrPd,-0.8857872158333311,0.0,0.0,False,NM,7e-07,225,full,False,7e-07
mp-867282,Tb2IrRh,-0.843008208333331,0.0,0.0,False,NM,0.000163,225,full,False,0.000163
mp-867291,Tb2IrRu,-0.576044608333332,0.032174813705355,0.0,False,NM,0.0050938,225,full,False,0.0050938
mp-1187264,Tb2NiIr,-0.6262787308333321,0.03273292624999,0.0,False,NM,0.0119688,225,full,False,0.0119688
mp-1187271,Tb2PdRh,-0.8609636058333311,0.021709132499999,0.0,False,NM,7.4e-06,225,full,False,7.4e-06
mp-1187263,Tb2PdRu,-0.6213292383333311,0.0,0.0,False,NM,7e-07,225,full,False,7e-07
mp-1187274,Tb2RuRh,-0.5864059083333311,0.0,0.0,False,NM,9e-07,225,full,False,9e-07
mp-1187269,Tb2TlHg,-0.414358729791668,0.0,0.0,True,FM,0.771165299999999,225,full,True,0.771165299999999
mp-1187270,Tb2ZnIr,-0.6180433458333321,0.028760986249997,0.0,False,NM,0.0124253,225,full,False,0.0124253
mp-977387,TbAgHg2,-0.339733660833332,0.0,0.0,False,NM,0.0,225,full,False,0.0
mp-977394,TbAlAg2,-0.327462222499996,0.005857978824077,0.0,False,NM,1e-07,225,full,False,1e-07
mp-971985,TbAlCu2,-0.377235755,0.028690801874997,0.0,False,NM,0.0,225,full,False,0.0
mp-1207177,TbBiPd,-1.059290718333334,0.0,0.0,False,NM,3e-07,216,half,False,3e-07
mp-1100767,TbBiPd2,-0.807335703333322,0.077716407916668,0.0,False,NM,0.000140899999999,225,full,False,0.000140899999999
mp-1206989,TbBiPt,-1.188158791666666,0.0,0.0,False,NM,2e-07,216,half,False,2e-07
mp-977398,TbCdAg2,-0.271773759999998,0.0,0.0,False,NM,1.5300000000000003e-05,225,full,False,1.5300000000000003e-05
mp-977376,TbCdAu2,-0.661868024166665,0.0,0.0,False,NM,1.8e-06,225,full,False,1.8e-06
mp-1100768,TbCdHg2,-0.363862655416667,0.0,0.0,False,NM,1e-07,225,full,False,1e-07
mp-977397,TbCdPd2,-0.7158241566666651,0.0,0.0,False,NM,1e-07,225,full,False,1e-07
mp-1187326,TbCdPt2,-0.802025196666669,0.01992203125,0.0,False,NM,1.0100000000000002e-05,225,full,False,1.0100000000000002e-05
mp-864615,TbCdRh2,-0.542790604166663,0.008990917500002,0.0,False,NM,5.799999999999999e-06,225,full,False,5.799999999999999e-06
mp-1187327,TbDyHg2,-0.5863101125000011,0.0,0.0,False,NM,5.4e-06,225,full,False,5.4e-06
mp-1187334,TbDyIn2,-0.6000497612500021,0.002146774687499,0.0,False,NM,4.5e-06,225,full,False,4.5e-06
mp-1187329,TbDyIr2,-0.8126317795833311,0.0,0.0,False,NM,0.002693799999999,225,full,False,0.002693799999999
mp-1187335,TbDyRh2,-0.85642913208333,0.0083057375,0.0,False,NM,6.170000000000001e-05,225,full,False,6.170000000000001e-05
mp-1187333,TbErHg2,-0.577425312083335,0.0,0.0,False,NM,2e-06,225,full,False,2e-06
mp-1187336,TbErIn2,-0.580089440833333,0.0,0.0,False,NM,1.46e-05,225,full,False,1.46e-05
mp-1187345,TbErIr2,-0.846996966666664,0.01394670982143,0.0,False,NM,0.0022604,225,full,False,0.0022604
mp-1187337,TbErRh2,-0.8882311941666651,0.010566534999998,0.0,False,NM,0.0007007,225,full,False,0.0007007
mp-1187411,TbEuRh2,-0.555818077916667,0.065162483624995,0.0,True,FM,6.8022157,225,full,True,6.8022157
mp-1187339,TbGaAu2,-0.657128586041666,0.029749785178571,0.0,False,NM,0.0010405,225,full,False,0.0010405
mp-977421,TbGaRh2,-0.7944247385416641,0.0,0.0,False,NM,1e-07,225,full,False,1e-07
mp-1187524,TbGdIr2,-0.772605531666666,0.0,0.0,True,FiM,6.7076493,225,full,True,6.7076493
mp-1187363,TbGdRh2,-0.8178378616666651,0.008760519999999,0.0,True,FM,7.022442,225,full,True,7.022442
mp-1187344,TbHoHg2,-0.5831264300000001,0.0,0.0,False,NM,1.3400000000000002e-05,225,full,False,1.3400000000000002e-05
mp-1187346,TbHoIn2,-0.448214126249998,0.0,0.0,False,NM,4.2e-06,225,full,False,4.2e-06
mp-1187351,TbHoIr2,-0.827672947916664,0.011882892321429,0.0,False,NM,0.0007226,225,full,False,0.0007226
mp-1187348,TbHoRh2,-0.870020495416663,0.009145395,0.0,False,NM,0.0002755,225,full,False,0.0002755
mp-22382,TbInAg2,-0.363992091666665,0.0,0.0,False,NM,1.18e-05,225,full,False,1.18e-05
mp-567210,TbInAu2,-0.7040339158333341,0.0,0.0,False,NM,5.6e-06,225,full,False,5.6e-06
mp-22685,TbInCu2,-0.3779502225,0.031389390000015,0.0,False,NM,1.3e-06,225,full,False,1.3e-06
mp-864808,TbInPd2,-0.871790045,0.0,0.0,False,NM,1.6e-06,225,full,False,1.6e-06
mp-864876,TbInRh2,-0.7320021133333301,0.0,0.0,False,NM,3.9e-06,225,full,False,3.9e-06
mp-979287,TbLuHg2,-0.568053120416671,0.0,0.0,False,NM,1.5e-06,225,full,False,1.5e-06
mp-1187340,TbLuIn2,-0.5536789641666641,0.016600485324058,0.0,False,NM,1.38e-05,225,full,False,1.38e-05
mp-1187371,TbLuIr2,-0.8827540983333341,0.023242657321427,0.0,False,NM,0.1944486,225,full,False,0.1944486
mp-1187357,TbLuRh2,-0.922969568333332,0.016975972499999,0.0,False,NM,0.0007762,225,full,False,0.0007762
mp-1206656,TbMg2Cu,0.068705230833333,0.209949999464286,0.0,False,NM,0.0001202,225,full,False,0.0001202
mp-866068,TbMgAu2,-0.768527832916666,0.0,0.0,False,NM,0.0,225,full,False,0.0
mp-862767,TbMgCd2,-0.283715265416664,0.0,0.0,False,NM,1.2e-06,225,full,False,1.2e-06
mp-867234,TbMgHg2,-0.451840549166671,0.0,0.0,False,NM,1.8e-06,225,full,False,1.8e-06
mp-977396,TbMgRh2,-0.688818790416665,0.0,0.0,False,NM,2.4e-06,225,full,False,2.4e-06
mp-1187355,TbMgTl2,-0.203240982083336,0.039553656388889,0.0,False,NM,0.001963,225,full,False,0.001963
mp-1187349,TbMgZn2,-0.341287482916665,0.0,0.0,False,NM,1.1e-06,225,full,False,1.1e-06
mp-1187353,TbNbRu2,-0.260804056666664,0.009487480442711,0.0,False,NM,0.000175599999999,225,full,False,0.000175599999999
mp-1206686,TbNiBi,-0.674196568888888,0.0,0.2301,False,NM,0.0,216,half,False,0.0
mp-3716,TbNiSb,-0.965375705555554,0.0,0.330999999999999,False,NM,0.0,216,half,False,0.0
mp-30413,TbPbAu,-0.685950168888892,0.0,0.0,False,NM,2e-07,216,half,False,2e-07
mp-1206368,TbPd2Pb,-0.6969449091666641,0.006631775624996,0.0,False,NM,5.299999999999997e-06,225,full,False,5.299999999999997e-06
mp-1187370,TbPmIr2,-0.6991896885416701,0.0,0.0,True,FiM,0.358106,225,full,True,0.358106
mp-980059,TbPmRh2,-0.7574044885416661,0.0,0.0,False,NM,2.05e-05,225,full,False,2.05e-05
mp-1187367,TbRh2Pb,-0.545043904166665,0.0067376175,0.0,True,FM,0.8939436,225,full,True,0.8939436
mp-16313,TbSbPt,-1.381467409999999,0.0,0.0968,False,NM,0.0,216,half,False,0.0
mp-971921,TbSmHg2,-0.5736269887500001,0.0,0.0,False,NM,0.0,225,full,False,0.0
mp-981213,TbSmIr2,-0.7216893579166661,0.039500483642854,0.0,False,NM,0.000179899999999,225,full,False,0.000179899999999
mp-1187376,TbSmRh2,-0.7780096779166641,0.01156061,0.0,False,NM,1.03e-05,225,full,False,1.03e-05
mp-864599,TbSnAu2,-0.698085210416664,0.0,0.0,False,NM,8.5e-06,225,full,False,8.5e-06
mp-5385,TbSnPd2,-0.8678104079166731,0.0,0.0,False,NM,7e-07,225,full,False,7e-07
mp-864600,TbSnRh2,-0.7767526179166651,0.0,0.0,False,NM,0.0064442,225,full,False,0.0064442
mp-1187383,TbSnRu2,-0.337575290416666,0.025733888854166,0.0,False,NM,0.000634599999999,225,full,False,0.000634599999999
mp-1187381,TbTaRu2,-0.324069898499999,0.0,0.0,False,NM,3.78e-05,225,full,False,3.78e-05
mp-978907,TbTlAg2,-0.235158228333333,0.019298539420291,0.0,False,NM,4.299999999999999e-06,225,full,False,4.299999999999999e-06
mp-978988,TbTmHg2,-0.577128541249997,0.0,0.0,False,NM,2.299999999999998e-06,225,full,False,2.299999999999998e-06
mp-1187384,TbTmIn2,-0.574172637500002,0.009203401435161,0.0,False,NM,5.7e-06,225,full,False,5.7e-06
mp-1187388,TbTmIr2,-0.8606290291666661,0.01683712482143,0.0,True,FM,0.218838099999999,225,full,True,0.218838099999999
mp-978908,TbTmRh2,-0.9015221441666672,0.012662979999998,0.0,False,NM,4.299999999999999e-06,225,full,False,4.299999999999999e-06
mp-978911,TbYHg2,-0.590041426250003,0.0,0.0,False,NM,6e-07,225,full,False,6e-07
mp-978912,TbYIr2,-0.7891073716666651,0.010549599821429,0.0,True,FiM,0.2674033,225,full,True,0.2674033
mp-978910,TbYRh2,-0.832463396666664,0.00830488,0.0,False,NM,3.6e-06,225,full,False,3.6e-06
mp-978975,TbYTl2,-0.348171490833339,0.0,0.0,False,NM,0.0002392,225,full,False,0.0002392
mp-865254,TbYbHg2,-0.577637395000003,0.0,0.0,False,NM,3.9e-06,225,full,False,3.9e-06
mp-1187378,TbYbPd2,-0.95029176625,0.032894240625001,0.0,False,NM,1.2e-06,225,full,False,1.2e-06
mp-972424,TbYbPt2,-1.355620461249998,0.076457846249994,0.0,False,NM,1e-07,225,full,False,1e-07
mp-865258,TbYbRh2,-0.9868328687499992,0.018321357499999,0.0,False,NM,0.0,225,full,False,0.0
mp-1187382,TbZnRh2,-0.6357268541666651,0.009016595,0.0,False,NM,1.2e-06,225,full,False,1.2e-06
mp-631320,TcIrOs,0.506931218888884,0.690456679999996,0.0,False,NM,0.0014125,216,half,False,0.0014125
mp-631523,TcNiW,0.6658518000000031,0.731772534444441,0.0,False,NM,0.008898699999999,216,half,False,0.008898699999999
mp-631366,TcSnSe,0.857410703229165,1.189215934166668,0.0,True,FM,1.3103497,216,half,True,1.3103497
mp-631398,TeOsCl2,0.6673728146874921,1.097054236562499,0.0,False,NM,0.0008144,216,full,False,0.0008144
mp-631365,TeRuPb,1.096769016666665,1.432655616666664,0.0,False,NM,0.015124499999999,216,half,False,0.015124499999999
mp-631381,TeRuSe,0.8489538203124971,1.31376888208333,0.0,False,NM,1.16e-05,216,half,False,1.16e-05
mp-865224,Th2BiTe,-0.947280731666664,0.0,0.0,False,NM,0.000146,225,full,False,0.000146
mp-1187409,Th2CuTc,-0.079006483749997,0.049152707500001,0.0,False,NM,5.9100000000000014e-05,225,full,False,5.9100000000000014e-05
mp-1187523,Th2SbTe,-1.099127124166662,0.056183660000002,0.0,False,NM,2.7300000000000003e-05,225,full,False,2.7300000000000003e-05
mp-980150,Th2ZnTc,-0.177834857361112,0.047477725833338,0.0,False,NM,0.0021798,225,full,False,0.0021798
mp-1187401,ThAgHg2,-0.197540111666667,0.00922046281863,0.0,False,NM,1.899999999999999e-06,225,full,False,1.899999999999999e-06
mp-1187402,ThAlCu2,-0.264187722499999,0.005349662037036,0.0,False,NM,2.6200000000000003e-05,225,full,False,2.6200000000000003e-05
mp-1187467,ThBiAu2,-0.5439881949999991,0.028865748529414,0.0,False,NM,8.42e-05,225,full,False,8.42e-05
mp-867372,ThCdAg2,-0.14431108583333,0.0,0.0,False,NM,1.9200000000000003e-05,225,full,False,1.9200000000000003e-05
mp-867353,ThCdAu2,-0.5885393400000011,0.0,0.0,False,NM,8.3e-06,225,full,False,8.3e-06
mp-1187437,ThCdCu2,-0.140725809999999,0.018498367954546,0.0,False,NM,0.000141999999999,225,full,False,0.000141999999999
mp-867346,ThCdHg2,-0.284584726250003,0.0,0.0,False,NM,1.899999999999999e-06,225,full,False,1.899999999999999e-06
mp-1187439,ThCdPd2,-0.649803167499998,0.023330441666663,0.0,False,NM,0.0006269,225,full,False,0.0006269
mp-861644,ThCdPt2,-0.837553319999997,0.087556391250004,0.0,False,NM,0.0003201,225,full,False,0.0003201
mp-861646,ThCdRh2,-0.6453965649999981,0.0,0.0,False,NM,8e-07,225,full,False,8e-07
mp-862875,ThGaAu2,-0.600490434374995,0.016526535955887,0.0,False,NM,5e-07,225,full,False,5e-07
mp-862932,ThInAg2,-0.218022792499997,0.0,0.0,False,NM,2.4e-05,225,full,False,2.4e-05
mp-622041,ThInAu2,-0.642016716666663,0.0,0.0,False,NM,3e-06,225,full,False,3e-06
mp-1187455,ThInCu2,-0.246931809166667,0.0,0.0,False,NM,0.000179799999999,225,full,False,0.000179799999999
mp-1100770,ThInRh2,-0.729808437499997,0.03487445666667,0.0,False,NM,0.000808599999999,225,full,False,0.000808599999999
mp-1187726,ThInRu2,-0.335774739999997,0.016900186666674,0.0,False,NM,3.66e-05,225,full,False,3.66e-05
mp-1187438,ThMgAu2,-0.6667310187499951,0.0,0.0,False,NM,2e-06,225,full,False,2e-06
mp-1187426,ThMgHg2,-0.292746047499999,0.0,0.0,False,NM,7.599999999999997e-06,225,full,False,7.599999999999997e-06
mp-1187456,ThMgRh2,-0.6981163787499991,0.00433928875,0.0,False,NM,2.9900000000000005e-05,225,full,False,2.9900000000000005e-05
mp-977352,ThMgZn2,-0.211637226249998,0.001672621250001,0.0,False,NM,8.2e-06,225,full,False,8.2e-06
mp-22786,ThNiSn,-0.6893862349999951,0.0,0.2675,False,NM,0.0,216,half,False,0.0
mp-672375,ThNiSn,0.320723198333335,1.010109433333331,0.0,False,NM,0.0006129,216,half,False,0.0
mp-1187445,ThPaTc2,-0.065414689374989,0.036571312500001,0.0,False,NM,0.0013674,225,full,False,0.0013674
mp-867418,ThPbAu2,-0.541775084999997,0.0022894425,0.0,False,NM,0.000167799999999,225,full,False,0.000167799999999
mp-10623,ThSbRh,-1.178002269999998,0.0,0.7438,False,NM,2.7e-06,216,half,False,2.7e-06
mp-865568,ThScTc2,-0.198044058749999,0.030731616875002,0.0,False,NM,0.0006184,225,full,False,0.0006184
mp-866174,ThSnAu2,-0.642506598749999,0.0,0.0,False,NM,1.5900000000000004e-05,225,full,False,1.5900000000000004e-05
mp-865677,ThSnPd2,-0.7935173599999951,0.002181428625007,0.0,False,NM,1.899999999999999e-06,225,full,False,1.899999999999999e-06
mp-19886,ThSnPt,-1.192033330000005,0.0,0.6738000000000001,False,NM,0.0,216,half,False,0.0
mp-865944,ThSnRu2,-0.4048492975,0.001504493958343,0.0,False,NM,2.75e-05,225,full,False,2.75e-05
mp-1187435,ThZnAu2,-0.550543714999999,0.01497282413043,0.0,False,NM,2.6e-06,225,full,False,2.6e-06
mp-865761,ThZnRh2,-0.6905303687499961,0.031342923333333,0.0,False,NM,2e-07,225,full,False,2e-07
mp-1064228,Ti2AlCo,-0.254581347333333,0.196185725374999,0.0,True,FiM,2.0004377,216,full,True,2.0004377
mp-999096,Ti2AlCr,-0.131580482083332,0.128768634374999,0.0,True,FiM,0.851428299999999,216,full,True,0.851428299999999
mp-999079,Ti2AlCu,-0.081409876458332,0.235118653749999,0.0,True,FM,3.7580484,216,full,True,3.7580484
mp-999069,Ti2AlFe,-0.232216314166666,0.181671027499999,0.0,True,FiM,1.000035,216,full,True,1.000035
mp-861627,Ti2AlMo,-0.345249995833333,0.0,0.0,False,NM,0.0004613,225,full,False,0.0004613
mp-1018016,Ti2AlNi,-0.264444806666666,0.186668221249999,0.0,True,FM,2.996793,216,full,True,2.996793
mp-1187453,Ti2AlNi,-0.270910676666666,0.180202351249999,0.0,True,FM,1.2945978,225,full,True,2.996793
mp-861640,Ti2AlRe,-0.510066803958334,0.0,0.0,False,NM,3.399999999999998e-06,225,full,False,3.399999999999998e-06
mp-861637,Ti2AlTc,-0.513734560833331,0.0,0.0,False,NM,0.0,225,full,False,0.0
mp-999068,Ti2AlV,-0.124545791458334,0.135803324999997,0.0,True,FiM,1.9162877999999992,216,full,True,1.9162877999999992
mp-1187418,Ti2AlW,-0.262540418333333,0.022477261249996,0.0,False,NM,0.000426399999999,225,full,False,0.000426399999999
mp-999072,Ti2AlZn,-0.014344134166666,0.285593794999999,0.0,True,FM,3.2501317,216,full,True,3.2501317
mp-1187423,Ti2BeTc,-0.305519326666666,0.015432476458332,0.0,False,NM,9.4e-05,225,full,False,9.4e-05
mp-999067,Ti2CoGe,-0.269588665416667,0.301426246249997,0.0,True,FM,3.0051304,216,full,True,3.0051304
mp-861639,Ti2CoIr,-0.6511540691666671,0.0,0.0,True,FM,1.6968244,225,full,True,1.6968244
mp-1187432,Ti2CoMo,-0.194178945833332,0.054202860555555,0.0,True,FM,0.127917199999999,225,full,True,0.127917199999999
mp-1187422,Ti2CoOs,-0.623635615833336,0.0,0.0,True,FM,0.952878799999999,225,full,True,0.952878799999999
mp-861641,Ti2CoRe,-0.450526278958335,0.0,0.0,True,FiM,0.287217599999999,225,full,True,0.287217599999999
mp-999060,Ti2CoSi,-0.361835758520836,0.307919523249998,0.0,True,FM,3.000764,216,full,True,3.000764
mp-862911,Ti2CoTc,-0.501579003333329,0.0,0.0,True,FiM,0.2539669,225,full,True,0.2539669
mp-861656,Ti2CrIr,-0.561369319166665,0.0,0.0,True,FiM,0.8385937,225,full,True,0.8385937
mp-1187431,Ti2CuIr,-0.501317696666665,0.009366687031251,0.0,False,NM,4.1900000000000016e-05,225,full,False,4.1900000000000016e-05
mp-1187436,Ti2CuRe,-0.306539218958334,0.034955893749998,0.0,False,NM,7.21e-05,225,full,False,7.21e-05
mp-972217,Ti2CuTc,-0.332717945833332,0.002355828749998,0.0,False,NM,1.5200000000000002e-05,225,full,False,1.5200000000000002e-05
mp-1187429,Ti2FeCo,-0.399876224166667,0.0045241525,0.0,True,FiM,0.9904833,225,full,True,0.9904833
mp-861672,Ti2FeIr,-0.667715469166665,0.0,0.0,True,FiM,0.8759903,225,full,True,0.8759903
mp-1187427,Ti2FeOs,-0.564715619166667,0.0,0.0,False,NM,0.0001595,225,full,False,0.0001595
mp-1187428,Ti2FeRu,-0.575021109166666,0.016949789999999,0.0,False,NM,9.3e-06,225,full,False,9.3e-06
mp-1094030,Ti2FeSi,-0.348007951666666,0.2976170521875,0.0,True,FiM,2.0019896,216,full,True,2.0019896
mp-1187434,Ti2FeTc,-0.449709367916666,0.0089890075,0.0,True,FiM,0.483460199999999,225,full,True,0.483460199999999
mp-999054,Ti2GaCo,-0.264302466041667,0.174314089687499,0.0,True,FiM,1.9995973,216,full,True,1.9995973
mp-999059,Ti2GaFe,-0.238037986041667,0.2081949475,0.0,True,FiM,0.994065099999999,216,full,True,0.994065099999999
mp-999053,Ti2GaNi,-0.265005343541666,0.1909840575,0.0,True,FM,3.0029911,216,full,True,3.0029911
mp-1187443,Ti2GaRe,-0.421450489166668,0.012440014999999,0.0,False,NM,0.0001919,225,full,False,0.0001919
mp-1187419,Ti2GaTc,-0.465936659791667,0.018164497499999,0.0,False,NM,1.7100000000000002e-05,225,full,False,1.7100000000000002e-05
mp-1018043,Ti2InCo,-0.071759558333333,0.191882087499999,0.0,True,FM,1.9997467,225,full,True,1.9997467
mp-999046,Ti2InCo,-0.052417220833334,0.211224424999999,0.0,True,FiM,1.998733399999999,216,full,True,1.9997467
mp-1018070,Ti2InFe,0.039998431666665,0.320069852499999,0.0,True,FiM,0.6612241,216,full,True,0.6612241
mp-1018013,Ti2InNi,-0.072750078333332,0.229396718749998,0.0,True,FM,1.0503877,225,full,True,1.0503877
mp-999076,Ti2InNi,-0.095342695833332,0.206804101249998,0.0,True,FM,3.0023676,216,full,True,1.0503877
mp-972328,Ti2IrRh,-0.785546999166668,0.013949064999998,0.0,False,NM,5.3300000000000015e-05,225,full,False,5.3300000000000015e-05
mp-1187430,Ti2IrRu,-0.794050424166666,0.016315399999999,0.0,False,NM,0.0027329,225,full,False,0.0027329
mp-972337,Ti2IrW,-0.5145119691666691,0.0,0.0,False,NM,1.7100000000000002e-05,225,full,False,1.7100000000000002e-05
mp-999052,Ti2MnAl,-0.250023836149425,0.076759216649999,0.051099999999999,True,FiM,0.000174,216,full,True,0.000174
mp-861958,Ti2MnBe,-0.203390732399426,0.0,0.0,False,NM,0.0,225,full,False,0.0
mp-863690,Ti2MnCo,-0.378944631149426,0.0,0.0,True,FiM,0.1931028,225,full,True,0.1931028
mp-861983,Ti2MnFe,-0.338448328649427,0.0,0.0,True,FiM,2.1694268,225,full,True,2.1694268
mp-1064731,Ti2MnGa,-0.265266170524426,0.108576287499999,0.0525,True,FiM,0.0005734,216,full,True,0.0005734
mp-1018015,Ti2MnGe,-0.244152399899426,0.294413374553572,0.0,True,FM,0.1136331,216,full,True,0.1136331