material_id,formula,formation_energy,ehull,band_gap,is_magnetic,magnetic_ordering,total_magnetization,spacegroup
mp-1185371,LiLu2Au,-0.522471543541669,0.06060935791666801,0.0,False,NM,0.000368899999999,225
mp-1185373,LiLu2Co,-0.13667632166666802,0.032528675249998,0.0,False,NM,0.0063427,225
mp-976596,LiLu2Ga,-0.361883632083333,0.038452573854165006,0.0,False,NM,0.000364299999999,225
mp-976595,LiLu2In,-0.308462328749989,0.024501412307692,0.0,False,NM,0.0001786,225
mp-861964,LiLu2Ir,-0.672485679166666,0.0,0.0,False,NM,3.299999999999999e-06,225
mp-861963,LiLu2Os,-0.32249639416666503,0.0,0.0,False,NM,4.1e-06,225
mp-973286,LiLu2Pd,-0.486121329999999,0.019585576666667003,0.0,False,NM,1.3000000000000001e-05,225
mp-1185372,LiLu2Pt,-0.8167149824999951,0.028129752083337,0.0,False,NM,0.0009925,225
mp-1185405,LiLu2Re,0.0023491877083330003,0.12194468197916801,0.0,False,NM,1.7500000000000002e-05,225
mp-977405,LiLu2Rh,-0.597598847499998,0.0,0.0,False,NM,5.4100000000000014e-05,225
mp-977393,LiLu2Ru,-0.36155081916666804,0.0,0.0,False,NM,7e-07,225
mp-977386,LiLu2Tc,-0.082232834999999,0.051792208177086005,0.0,False,NM,0.0001928,225
mp-867903,LiLuAu2,-0.7881009908333281,0.0,0.0,False,NM,9.220000000000003e-05,225
mp-976426,LiLuHg2,-0.47080882958333303,0.0,0.0,False,NM,1.899999999999999e-06,225
mp-1185369,LiLuIn2,-0.44590023583333105,0.010025182500015,0.0,False,NM,2.6e-06,225
mp-977374,LiLuPd2,-0.7595399033333301,0.009879410749999,0.0,False,NM,0.0,225
mp-861652,LiLuPt2,-1.059402650833327,0.030228821363664,0.0,False,NM,9.800000000000001e-06,225
mp-1185393,LiLuRh2,-0.621082885833327,0.023328457500003,0.0,False,NM,0.000156,225
mp-1185385,LiLuTl2,-0.279264756666673,0.0,0.0,False,NM,4.299999999999999e-06,225
mp-864598,LiMg2Ag,-0.198029603749999,0.0,0.0,False,NM,5.7e-06,225
mp-1185365,LiMg2Au,-0.460586658333332,0.0,0.0,False,NM,6.599999999999999e-06,225
mp-1185359,LiMg2Cd,-0.136248555833332,0.0,0.0,False,NM,7e-07,225
mp-30648,LiMg2Ga,-0.160652872708333,0.005975480750001001,0.0,False,NM,0.0005154,225
mp-30079,LiMg2Ge,-0.135577294583332,0.11931611062499901,0.0,False,NM,0.023445399999999002,225
mp-864630,LiMg2Hg,-0.24106537895833502,0.0,0.0,False,NM,7.8e-06,225
mp-1185366,LiMg2In,-0.12803798999999902,0.018009207916666003,0.0,False,NM,3.299999999999999e-06,225
mp-1232420,LiMg2Ir,-0.33976344083333304,0.0,0.0,False,NM,8e-07,225
mp-1185377,LiMg2Ni,-0.10479242583333201,0.011791346631944002,0.0,False,NM,4.4e-06,225
mp-1206745,LiMg2Pb,-0.08125012083333201,0.06043892937499801,0.0,False,NM,0.0067496,225
mp-977380,LiMg2Pd,-0.45912025833333203,0.0,0.0,False,NM,1.54e-05,225
mp-864614,LiMg2Pt,-0.613423705833333,0.0,0.0,False,NM,0.0,225
mp-864601,LiMg2Rh,-0.364491183333332,0.0,0.0,False,NM,5e-07,225
mp-1067042,LiMg2Si,-0.015038488333332002,0.135963621562499,0.0,False,NM,0.010019799999999001,225
mp-30759,LiMg2Tl,-0.086211086666668,0.0275225875,0.0,False,NM,0.001971,225
mp-864762,LiMg2Zn,-0.12234565333333201,0.0,0.0,False,NM,4e-06,225
mp-1094603,LiMg3,-0.019239695833333,0.022573000833333003,0.0,False,NM,3.299999999999999e-06,225
mp-1185364,LiMgAg2,-0.22726054041666402,0.0,0.0,False,NM,1.2100000000000001e-05,225
mp-12558,LiMgAs,-0.8998631680555551,0.0,1.372299999999999,False,NM,0.0,216
mp-977418,LiMgAu2,-0.5792043545833331,0.0,0.0,False,NM,9.499999999999994e-06,225
mp-570213,LiMgBi,-0.396783942777777,0.0,0.3587,False,NM,0.0,216
mp-1185358,LiMgCd2,-0.159461544583332,0.004020874166664,0.0,False,NM,1e-07,225
mp-1185363,LiMgHg2,-0.30029460083333703,0.0,0.0,False,NM,8.099999999999999e-06,225
mp-1185368,LiMgIn2,-0.16115613541666501,0.0024432387499990003,0.0,False,NM,1.5e-06,225
mp-1222290,LiMgIn2,-0.077964025416664,0.08563534874999901,0.0,False,NM,0.0005777,216
mp-37906,LiMgN,-0.8117910368055551,0.0,2.4462,False,NM,0.0,216
mp-10178,LiMgP,-0.400808674325396,0.350488743333333,0.0,False,NM,0.0,216
mp-36111,LiMgP,-0.75129741765873,0.0,1.7113,False,NM,0.0,216
mp-961683,LiMgP,-0.411192047658729,0.34010537,1.935,False,NM,0.0005300999999990001,216
mp-1185374,LiMgPb2,-0.16888615208333202,0.0,0.0,False,NM,1e-06,225
mp-977399,LiMgPd2,-0.616924229583331,0.0,0.0,False,NM,1e-07,225
mp-1100424,LiMgSb,-0.43539792944444405,0.180813566666665,1.1328,False,NM,0.0009693999999990001,216
mp-1207082,LiMgSb,-0.616211496111109,0.0,1.4438,False,NM,0.0,216
mp-10179,LiMgSbPd,-0.5685833170833321,0.09047993083333401,0.0,False,NM,1.1900000000000001e-05,216
mp-571584,LiMgSbPt,-0.595307529583332,0.10033432125000101,0.0,False,NM,1.4e-06,216
mp-7554,LiMgSnAu,-0.40073042833333206,0.058298733541667,0.0,False,NM,0.0008514,216
mp-7555,LiMgSnPd,-0.581613253333332,0.0,0.0,False,NM,0.0032832,216
mp-11806,LiMgSnPt,-0.6584183883333321,0.0,0.0,False,NM,2e-07,216
mp-864597,LiMgTl2,-0.13828705875000302,0.0,0.0,False,NM,4.999999999999999e-06,225
mp-35530,LiMn4O8,-1.908730573465959,0.048668408403846,0.0,True,FM,44.007058,216
mp-1008911,LiMnAs,-0.287034042921456,0.145942876340997,0.0,True,FM,4.5069881,216
mp-1185360,LiMnIr2,-0.19375908281609203,0.018078454999999,0.0,True,FM,2.0674133,225
mp-861629,LiMnPd2,-0.365073502816093,0.0,0.0,True,FM,4.630896,225
mp-861658,LiMnPt2,-0.48018209781609406,0.0,0.0,True,FM,4.5844638,225
mp-1059612,LiN,0.991630267291666,1.335791741250001,0.0,True,FM,1.9999999,216
mp-977563,LiNbIr2,-0.48770950833333304,0.0,0.0,False,NM,3e-07,225
mp-864631,LiNbRh2,-0.442245220833333,0.0,0.0,False,NM,9e-07,225
mp-1185361,LiNbRu2,-0.10057751416666601,0.107448528541667,0.0,False,NM,1.4200000000000001e-05,225
mp-866017,LiNd2Al,-0.219571222916666,0.008795741770832,0.0,False,NM,3.94e-05,225
mp-865578,LiNd2Ga,-0.33895859041666604,0.020288928854167002,0.0,False,NM,4.4200000000000004e-05,225
mp-865808,LiNd2Ir,-0.47049519608333,0.022999046916662002,0.0,False,NM,0.0006818999999990001,225
mp-977391,LiNd2Os,-0.114770347916664,0.010008829114589,0.0,False,NM,2.05e-05,225
mp-1185389,LiNd2Rh,-0.341829567083332,0.060474459166664,0.0,False,NM,0.00044869999999900005,225
mp-977539,LiNd2Ru,-0.15116081916666602,0.019966269348955002,0.0,False,NM,0.0001318,225
mp-1185397,LiNdAu2,-0.663592727708331,0.012961923749999,0.0,False,NM,2e-06,225
mp-861660,LiNdHg2,-0.5177201447916671,0.0,0.0,False,NM,5.299999999999997e-06,225
mp-1185415,LiNdIn2,-0.515515840979169,0.0360087140625,0.0,False,NM,1.0800000000000002e-05,225
mp-12719,LiNdSn,-0.49794767194444306,0.16462873999999902,0.0,False,NM,0.0006945,216
mp-866019,LiNdTl2,-0.335290086875002,0.0,0.0,False,NM,1e-06,225
mp-1185390,LiNdZn2,-0.266042885208333,0.009899585416667,0.0,False,NM,7e-07,225
mp-16349,LiNi2Ge,-0.362563197083333,0.0,0.0,False,NM,1.3e-06,225
mp-1185260,LiNi2Sb,-0.281255136666667,0.054190885833333,0.0,False,NM,3.9e-05,225
mp-13915,LiNi2Sn,-0.273924724583333,0.0,0.0,False,NM,6.099999999999997e-06,225
mp-1185274,LiNp3,0.44010144510416804,0.44010144510416804,0.0,True,FiM,1.4796795,225
mp-977583,LiNpIr2,-0.399702506770836,0.18891116666666302,0.0,True,FM,0.0758153,225
mp-1185270,LiNpRh2,-0.553328041354163,0.0,0.0,True,FM,3.4683938,225
mp-1185267,LiNpRu2,0.097170501979164,0.097170501979164,0.0,False,NM,0.0114529,225
mp-1097725,LiO2,-0.43997699777777804,0.6860070323809521,0.0,True,FM,1.0783597,225
mp-865046,LiPaPt2,-0.860604424166666,0.06623276714284901,0.0,False,NM,0.0045000000000000005,225
mp-865029,LiPaRu2,-0.35366708166667105,0.0,0.0,False,NM,0.0,225
mp-1185262,LiPd2Au,-0.29213924624999504,0.025279509999997,0.00019999999999900002,False,NM,5.799999999999999e-06,225
mp-30763,LiPd2Pb,-0.419870908333332,0.0,0.0,False,NM,1e-06,225
mp-1079855,LiPd7,-0.16044425208333002,0.0,0.0,True,FM,2.6018588,225
mp-861930,LiPdAu2,-0.354512704166666,0.018978817500002,0.0,False,NM,8e-07,225
mp-631333,LiPdW2,0.786284133333335,0.9946117150000011,0.0,False,NM,6.230000000000002e-05,225
mp-861948,LiPm2Al,-0.22926582041666402,0.004703284999997,0.0,False,NM,1e-06,225
mp-1185413,LiPm2Co,0.090516054583336,0.090516054583336,0.0,False,NM,0.0001436,225
mp-861947,LiPm2Ga,-0.35088958541666304,0.0,0.0,False,NM,0.0002449,225
mp-861955,LiPm2Ge,-0.426732410833333,0.0,0.0,False,NM,2.3800000000000003e-05,225
mp-861956,LiPm2Ir,-0.5049128554166621,0.0,0.0,False,NM,6.51e-05,225
mp-862841,LiPm2Os,-0.15580989791666802,0.0,0.0,False,NM,6.15e-05,225
mp-1185398,LiPm2Pb,-0.321793639583332,0.006430284999998001,0.0,False,NM,0.0017928,225
mp-862842,LiPm2Pt,-0.614724197916665,0.0,0.0,False,NM,0.0003072,225
mp-863673,LiPm2Rh,-0.400373985416667,0.004771985833329001,0.0,False,NM,6.06e-05,225
mp-863675,LiPm2Ru,-0.186295189166667,0.0,0.0,False,NM,7.18e-05,225
mp-863697,LiPm2Si,-0.337434707083334,0.0,0.0,False,NM,3.03e-05,225
mp-1185399,LiPm2Sn,-0.44844138583333404,0.0,0.0,False,NM,0.00013199999999900002,225
mp-862926,LiPmAu2,-0.729600761041666,0.0,0.0,False,NM,4.1e-06,225
mp-1185409,LiPmGa2,-0.493660411041666,0.0,0.0,False,NM,4e-07,225
mp-862927,LiPmHg2,-0.522510124791665,0.0,0.0,False,NM,5e-07,225
mp-1185484,LiPmIn2,-0.510110018541666,0.0,0.0,False,NM,2.4e-06,225
mp-862928,LiPmTl2,-0.42744861854166705,0.0,0.0,False,NM,1.5e-06,225
mp-983444,LiPmZn2,-0.269209558541666,0.0,0.0,False,NM,5.9e-06,225
mp-1185391,LiPr2Al,-0.206799297499998,0.014472406458335,0.0,False,NM,2.0700000000000002e-05,225
mp-1185403,LiPr2Ga,-0.32471727249999904,0.025432894236111003,0.0,False,NM,4.85e-05,225
mp-1185396,LiPr2Ir,-0.42396662879165703,0.033435916791667006,0.0,False,NM,0.0013262,225
mp-977570,LiPr2Os,-0.062683129999999,0.025728106692707003,0.0,False,NM,8.280000000000002e-05,225
mp-1185400,LiPr2Rh,-0.30565970666666603,0.070666970249999,0.0,False,NM,0.0002061,225
mp-861661,LiPr2Ru,-0.11981246336309301,0.023623264791662,0.0,False,NM,0.0083112,225
mp-1185407,LiPrAu2,-0.648446831249999,0.016619845624999,0.0,False,NM,2.6600000000000003e-05,225
mp-865738,LiPrHg2,-0.510180438333328,0.0,0.0,False,NM,2e-07,225
mp-12718,LiPrSn,-0.49752711333333305,0.158216898749999,0.0,False,NM,4.13e-05,216
mp-865709,LiPrTl2,-0.423108754583338,0.00015290791667100002,0.0,False,NM,6e-07,225
mp-1185408,LiPrZn2,-0.25988930124999904,0.006913966666667001,0.0,False,NM,9.3e-06,225
mp-30765,LiPt7,-0.301626324583331,0.0,0.0,False,NM,0.0020916,225
mp-1185480,LiPu3,0.793055031666668,0.793055031666668,0.0,True,FM,2.7674425,225
mp-1185410,LiRe3,0.206927667916666,0.206927667916666,0.0,False,NM,0.000335199999999,225
mp-861663,LiRh2Pb,-0.23775835833333303,0.0,0.0,False,NM,1.16e-05,225
mp-861666,LiRu2W,-0.061894856666668004,0.0,0.0,False,NM,9.199999999999997e-06,225
mp-32641,LiS,-0.7548477854166661,0.43029531750000005,0.0,False,NM,0.0575722,225
mp-12564,LiSbAu,-0.323932655202019,0.10481701527777701,0.0,False,NM,2.32e-05,216
mp-861736,LiSbPd2,-0.627883106666665,0.0,0.0,False,NM,0.0,225
mp-861667,LiSbRh2,-0.632197939166665,0.0,0.0,False,NM,2.15e-05,225
mp-1205649,LiSc(TlCl3)2,-1.9962580364999991,0.0,3.770299999999999,False,NM,0.006386399999999,225
mp-864772,LiSc2Au,-0.473255859166666,0.06392891708333401,0.0,False,NM,1.699999999999999e-06,225
mp-1185424,LiSc2Ga,-0.369207619166665,0.028996866458333003,0.0,False,NM,0.4645041,225
mp-861616,LiSc2Ir,-0.6665603858333321,0.0,0.0,False,NM,3e-07,225
mp-862887,LiSc2Os,-0.33092544833333004,0.0,0.0,False,NM,2.86e-05,225
mp-1185433,LiSc2Pd,-0.445031289895833,0.049504774166667,0.0,False,NM,3.0000000000000004e-05,225
mp-865444,LiSc2Pt,-0.7343031858333331,0.0,0.0,False,NM,1e-07,225
mp-865793,LiSc2Rh,-0.5495435108333321,0.0,0.0,False,NM,2.03e-05,225
mp-865795,LiSc2Ru,-0.36450625833333206,0.0,0.0,False,NM,2.2300000000000003e-05,225
mp-865936,LiSc2Tc,-0.12281797708333302,0.0,0.0,False,NM,1.699999999999999e-06,225
mp-1235436,LiSc4(Si2O7)2,-3.252829266231883,0.25417329999321003,0.0,True,FM,1.0096376,216
mp-862815,LiScAu2,-0.730636067916666,0.0,0.0,False,NM,1.5e-06,225
mp-863659,LiScHg2,-0.438690244166668,0.0,0.0,False,NM,7.4e-06,225
mp-1185454,LiScIn2,-0.43737271041666503,0.027174303749994,0.0,False,NM,1.3e-06,225
mp-865184,LiScPd2,-0.7187320929166651,0.0,0.0,False,NM,1e-07,225
mp-865228,LiScPt2,-0.962303979583333,0.0,0.0,False,NM,6.190000000000001e-05,225
mp-1185444,LiScRh2,-0.593898397083332,0.016211574999999,0.0,False,NM,4.8e-06,225
mp-962070,LiScSi,0.058109410555555005,0.595592451190474,0.444999999999999,False,NM,0.0005487,216
mp-1100438,LiScSn,-0.07124034111111001,0.47984648566666505,0.36260000000000003,False,NM,0.0002407,216
mp-865231,LiScTl2,-0.311142960416667,0.0,0.0,False,NM,4.1e-06,225
mp-1185425,LiSiAg2,-0.092911594166666,0.031321484999998005,0.0,False,NM,0.0,225
mp-1211042,LiSiAg2,0.022411660833334002,0.14664473999999902,0.0,False,NM,0.0001982,216
mp-1100392,LiSiB,-0.138751264166666,0.049326017329748006,0.285299999999999,False,NM,0.0,216
mp-865933,LiSiIr2,-0.6974885683333311,0.0,0.0,False,NM,0.0,225
mp-10181,LiSiNi2,-0.48706503333333206,0.0,0.0,False,NM,1.23e-05,225
mp-864997,LiSiPd2,-0.6969589833333321,0.0,0.0,False,NM,0.0,225
mp-1185419,LiSiPt2,-0.7072630858333261,0.0,0.0,False,NM,1.3e-06,225
mp-867902,LiSiRh2,-0.8362333983333331,0.0,0.0,False,NM,4e-07,225
mp-865838,LiSiRu2,-0.352916888333333,0.0,0.0,False,NM,0.004876399999999,225
mp-1185458,LiSm2Al,-0.229923601666666,0.006355630052087001,0.0,False,NM,0.0001639,225
mp-1185441,LiSm2Ga,-0.352197914166666,0.022834300364586002,0.0,False,NM,0.0002546,225
mp-866146,LiSm2Ir,-0.530170049166667,0.011556883083326001,0.0,False,NM,5.2e-06,225
mp-866150,LiSm2Os,-0.178307839166667,0.0,0.0,False,NM,8.32e-05,225
mp-865708,LiSm2Ru,-0.20588268791666603,0.006810339973956,0.0,False,NM,6.360000000000001e-05,225
mp-972993,LiSmAu2,-0.6821153145833311,0.006538096250002,0.0,False,NM,2.8e-06,225
mp-865812,LiSmHg2,-0.517503625416672,0.0,0.0,False,NM,8.099999999999999e-06,225
mp-1185481,LiSmIn2,-0.5133692616666671,0.029645283749999002,0.0,False,NM,1.48e-05,225
mp-865116,LiSmTl2,-0.33112647125000105,0.0,0.0,False,NM,9e-07,225
mp-865710,LiSnAu2,-0.38896137208333104,0.0,0.0,False,NM,1e-07,225
mp-1100396,LiSnB,0.0959620875,0.34614873888889,0.41500000000000004,False,NM,0.0045143,216
mp-864768,LiSnIr2,-0.284437219583333,0.00299319113636,0.0,False,NM,3e-07,225
mp-7243,LiSnPd2,-0.660608439583331,0.0,0.0,False,NM,4.299999999999999e-06,225
mp-1185434,LiSnPt2,-0.5884945220833321,0.0013596499999990002,0.0,False,NM,1.8e-06,225
mp-864784,LiSnRh2,-0.5665361545833321,0.0,0.0,False,NM,2.499999999999999e-06,225
mp-631449,LiTaBe,1.320138884777777,1.4476501417460281,0.0,False,NM,0.0007536,216
mp-1206962,LiTaF6,-3.448593890499999,0.006719753749999001,6.1518,False,NM,0.0,225
mp-977561,LiTaIr2,-0.6999207484999981,0.0,0.0,False,NM,8e-07,225
mp-861951,LiTaRh2,-0.5893569485000001,0.0,0.0,False,NM,0.0,225
mp-861954,LiTaRu2,-0.21248191100000102,0.048592828749995,0.0,False,NM,0.000128699999999,225
mp-631330,LiTaW2,0.566982471083328,0.6179066616666661,0.0,False,NM,0.0079315,225
mp-867285,LiTb2Ir,-0.555401524166667,0.0,0.0,False,NM,6e-07,225
mp-864824,LiTbAu2,-0.7089497049999981,0.0011664654166670002,0.0,False,NM,1.9e-05,225
mp-864804,LiTbHg2,-0.5166034579166731,0.0,0.0,False,NM,1.1e-06,225
mp-1185445,LiTbIn2,-0.49521207916666604,0.037653072857139,0.0,False,NM,4.299999999999999e-06,225
mp-977542,LiTbTl2,-0.31877734416666903,0.0,0.0,False,NM,2.299999999999998e-06,225
mp-631334,LiTc2Pd,0.580329040833333,0.788656622499999,0.0,False,NM,0.07828689999999901,225
mp-861733,LiTePd2,-0.5221784099999971,0.07680727550000001,0.0,False,NM,1e-07,225
mp-1185450,LiTh2Tc,-0.079088862367427,0.058712255416665006,0.0,False,NM,1.18e-05,225
mp-865940,LiThAu2,-0.6073597483333311,0.0,0.0,False,NM,8e-07,225
mp-1185437,LiThHg2,-0.33990319291667204,0.0,0.0,False,NM,1.73e-05,225
mp-1185466,LiThPt2,-1.0218463228125,0.056544123437497006,0.0,False,NM,0.0005618,225
mp-1185462,LiThRh2,-0.6334192791666631,0.0,0.0,False,NM,5.4900000000000006e-05,225
mp-1185428,LiTi2Ir,-0.49650768500000003,0.006038900416668,0.0,False,NM,1.6e-06,225
mp-864930,LiTiIr2,-0.660227134166668,0.0,0.0,False,NM,4.8e-06,225
mp-1185238,LiTiPd2,-0.523111463333332,0.0030920324999990003,0.0,False,NM,0.00015209999999900002,225
mp-977440,LiTiPt2,-0.8956116783333311,0.0,0.0,False,NM,0.006798699999999,225
mp-631319,LiTiRe,1.012202545833332,1.311346795555561,0.0,False,NM,0.0095595,216
mp-863727,LiTiRh2,-0.6442073891666651,0.0,0.0,False,NM,6.799999999999997e-06,225
mp-989577,LiTl2GaF6,-2.645941066750001,0.0,4.3717,False,NM,7.2e-05,225
mp-989512,LiTl2InCl6,-1.5736920236666672,0.0,2.8771,False,NM,0.0047296,225
mp-989551,LiTl2InF6,-2.592978106666667,0.0,4.1011,False,NM,0.0001271,225
mp-1185239,LiTl2Pd,-0.260406741666663,0.010634181250004001,0.0,False,NM,5e-07,225
mp-861725,LiTl2Rh,-0.149139516666664,0.0,0.0,False,NM,7.499999999999998e-06,225
mp-867873,LiTm2Al,-0.24169031166666902,0.0,0.0,False,NM,0.001191,225
mp-976260,LiTm2Au,-0.509104748958336,0.06415147229166601,0.0,False,NM,0.000270799999999,225
mp-867136,LiTm2Co,-0.112856828333338,0.010436652499998,0.0,False,NM,8.380000000000003e-05,225
mp-1185242,LiTm2Ga,-0.37202966666666903,0.031783546770832005,0.0,False,NM,0.0003696,225
mp-976339,LiTm2In,-0.33176008166666504,0.014979393749996002,0.0,False,NM,0.0001835,225
mp-867220,LiTm2Ir,-0.638711158333338,0.0,0.0,False,NM,4.1e-06,225
mp-867265,LiTm2Os,-0.336532184166667,0.0,0.0,False,NM,6.7e-06,225
mp-867888,LiTm2Pt,-0.799048953333329,0.027700733541667,0.0,False,NM,0.0066707,225
mp-867162,LiTm2Rh,-0.532870973333338,0.0,0.0,False,NM,0.0,225
mp-862614,LiTm2Ru,-0.33362870583333504,0.0,0.0,False,NM,1.1e-06,225
mp-862545,LiTm2Tc,-0.058693776666668,0.052382940520832005,0.0,False,NM,4.599999999999997e-06,225
mp-861664,LiTmAu2,-0.786110069166667,0.007620496250005,0.0,False,NM,8.8e-06,225
mp-861933,LiTmHg2,-0.489551250416667,0.0,0.0,False,NM,7e-07,225
mp-861665,LiTmIn2,-0.463767529166666,0.019500300454545,0.0,False,NM,2.499999999999999e-06,225
mp-867364,LiTmPd2,-0.7363722691666651,0.027659790416695,0.0,False,NM,3e-07,225
mp-867313,LiTmPt2,-1.052549114999983,0.027000685833336,0.0,False,NM,5.7400000000000006e-05,225
mp-976259,LiTmRh2,-0.563284643333336,0.019983254999996,0.0,False,NM,1.3300000000000001e-05,225
mp-861969,LiTmTl2,-0.37125601166666605,0.0,0.0,False,NM,1.2e-06,225
mp-1206695,LiVBi,0.269116571666676,0.548151846666677,0.0,True,FiM,3.0020125,216
mp-753571,LiVF6,-2.968704474166667,0.0018077337499990001,3.0758,False,NM,0.0,225
mp-867927,LiVIr2,-0.5806818716666661,0.0,0.0,False,NM,5.2e-06,225
mp-867829,LiVRh2,-0.45736007166666603,0.0,0.0,False,NM,9e-07,225
mp-1207173,LiVSb,0.042196000833331006,0.49779918527777506,0.0,True,FM,2.998843,216
mp-1139958,LiY(TlCl3)2,-2.047536475000001,0.011199019499996,4.5574,False,NM,4.7e-06,225
mp-862555,LiY2Al,-0.261960931666667,0.0,0.0,False,NM,0.003329399999999,225
mp-1185244,LiY2Ga,-0.32617360520833205,0.016442154322918002,0.0,False,NM,0.017397799999999002,225
mp-1185251,LiY2Hg,-0.29295322104166704,0.000778860833332,0.0,False,NM,1e-07,225
mp-867235,LiY2Ir,-0.5420365783333321,0.0,0.0,False,NM,1.6e-06,225
mp-862719,LiY2Os,-0.22602248166666702,0.0,0.0,False,NM,8.86e-05,225
mp-867121,LiY2Pt,-0.7231119595833341,0.033942637291666,0.0,False,NM,0.0136794,225
mp-862672,LiY2Rh,-0.45105959583333105,0.009756284095238,0.0,False,NM,7.4e-06,225
mp-862673,LiY2Ru,-0.244852593333332,0.0,0.0,False,NM,7.09e-05,225
mp-1185241,LiY2Tl,-0.301284349166667,0.017815321874998,0.0,False,NM,0.4316738,225
mp-1185245,LiY3,0.192883224166665,0.192883224166665,0.0,False,NM,0.0576511,225
mp-867822,LiYAu2,-0.7588378091666671,0.012634842656254001,0.0,False,NM,5.4e-06,225
mp-867810,LiYHg2,-0.505823462916669,0.0,0.0,False,NM,0.0,225
mp-1185248,LiYPd2,-0.6821620557083351,0.035735730124997006,0.0,False,NM,8e-06,225
mp-1100428,LiYSi,0.096882362222221,0.6720679055555541,0.39690000000000003,False,NM,0.00024349999999900002,216
mp-867807,LiYTl2,-0.39061273166666405,0.0,0.0,False,NM,2e-07,225
mp-1185243,LiYb2Al,-0.24704360166666803,0.0,0.0,False,NM,0.0006611,225
mp-1185246,LiYb2Cd,-0.158762061666667,0.030475404583334004,0.0,False,NM,2.54e-05,225
mp-864753,LiYb2Ga,-0.36653777416666905,0.0,0.0,False,NM,0.002952599999999,225
mp-864781,LiYb2Hg,-0.29092479854167,0.0,0.0,False,NM,0.1582596,225
mp-1185254,LiYb2In,-0.331923356666667,0.0,0.0,False,NM,0.007107,225
mp-864759,LiYb2Ir,-0.7426528991666671,0.0,0.0,False,NM,5.2e-06,225
mp-864771,LiYb2Pd,-0.48477810666666704,0.04257186895833601,0.0,False,NM,4.7e-06,225
mp-864763,LiYb2Rh,-0.596158906666666,0.0,0.0,False,NM,0.0,225