material_id,formula,formation_energy,ehull,band_gap,is_magnetic,magnetic_ordering,total_magnetization,spacegroup
mp-1523377,CaHfNbInO6,-3.004229163666666,0.181525003263892,0.5366999999999991,False,NM,0.0,216
mp-1522722,CaHfTiSnO6,-3.145945214833333,0.163982156500003,2.3192,False,NM,0.0,216
mp-631515,CaHfZn,0.920329686666668,1.098533526999999,0.0,False,NM,0.0002626,216
mp-1183561,CaHoCd2,-0.312960176249995,0.0008210375000010001,0.0,False,NM,1.6100000000000002e-05,225
mp-1183554,CaHoHg2,-0.594504837500004,0.0,0.0,False,NM,2.11e-05,225
mp-1183569,CaHoPd2,-0.7988026862499921,0.030588318611112,0.0,False,NM,0.0009613,225
mp-866283,CaHoRh2,-0.627668618749997,0.001346332986112,0.0,False,NM,6e-07,225
mp-1183585,CaHoZn2,-0.291256183749998,0.008395083249997,0.0,False,NM,5.4e-06,225
mp-1234279,CaIn4(Ge2O7)2,-1.767936373768114,0.40933201351449006,0.0,False,NM,3.5e-06,216
mp-1183617,CaInAg2,-0.31216944499999805,0.033023087812502,0.0,False,NM,1.7000000000000003e-05,225
mp-861960,CaInAu2,-0.6447403674999991,0.035720307740383005,0.0,False,NM,1.1e-06,225
mp-570769,CaInCu4,-0.18192813333333402,0.020469135833332,0.0,False,NM,0.0,216
mp-867201,CaInHg2,-0.42768653125000305,0.0046816884375000005,0.0,False,NM,7e-07,225
mp-1183586,CaInPd2,-0.672011032499998,0.030075027755668,0.0,False,NM,3.299999999999999e-06,225
mp-1227082,CaLa(CoO3)2,-2.1831188215,0.137583440333336,0.0,True,FM,4.768789,225
mp-1227065,CaLa2ZrO6,-3.373393578000001,0.40692635412500106,2.2496,False,NM,3.5700000000000014e-05,225
mp-862795,CaLaAg2,-0.30696450874999903,0.0,0.0,False,NM,3.33e-05,225
mp-1227048,CaLaAl4,-0.42746901666666504,0.022610505000001002,0.0,False,NM,0.0306922,216
mp-1183579,CaLaAu2,-0.8259485562500021,0.0,0.0,False,NM,9.3e-06,225
mp-866000,CaLaCd2,-0.36111094125000004,0.0,0.0,False,NM,3.71e-05,225
mp-1518480,CaLaCrBiO6,-2.4139704265,0.320258884416667,0.0,True,FM,3.8502351,216
mp-1517157,CaLaCrSnO6,-2.343470525999999,0.6039372701666671,0.0,True,FM,1.0,216
mp-1520370,CaLaCrSnO6,-2.767065643999999,0.18034215216666602,2.1181,True,FM,3.0000006,216
mp-1522430,CaLaEuSbO6,-2.903502259000001,0.23054911211666002,0.263,True,FM,7.0,216
mp-1519433,CaLaFeBiO6,-2.063154854500001,0.49541941324999905,0.0,True,FM,3.9998989,216
mp-1519874,CaLaFeBiO6,-2.2829733675000012,0.275600900249999,0.0,True,FM,4.1296203,216
mp-862846,CaLaHg2,-0.6360104200000051,0.0,0.0,False,NM,0.000249,225
mp-861643,CaLaMg2,-0.09486094875000001,0.0,0.0,False,NM,1.77e-05,225
mp-1522145,CaLaPrMnO6,-2.97455164745977,0.263685960804165,2.698,True,FM,2.9999481,216
mp-1227087,CaLaVFeO6,-2.765115187500001,0.135845886357143,1.0776,True,FM,6.0000195,216
mp-862962,CaLaZn2,-0.315703181249999,0.0,0.0,False,NM,0.0007653,225
mp-1183559,CaLuHg2,-0.563193690416667,0.0072497775,0.0,False,NM,2.34e-05,225
mp-1183596,CaLuPd2,-0.811954837083334,0.042178462361107005,0.0,False,NM,0.0002259,225
mp-861869,CaLuRh2,-0.721405350868057,0.017421997986108002,0.0,False,NM,0.0009274,225
mp-1094734,CaMg3,-0.046353166249999,0.04177060875,0.0,False,NM,0.0,225
mp-1521764,CaMgBiSbO6,-2.277626647500001,0.167413372999994,1.4974999999999992,False,NM,0.0,216
mp-1183548,CaMgCd2,-0.23406664874999902,0.0,0.0,False,NM,2.6e-06,225
mp-867144,CaMgHg2,-0.40955122000000205,0.0,0.0,False,NM,5e-07,225
mp-13434,CaMgNi4,-0.19381255416666401,0.006002521041661,0.0,True,FM,1.3442254,216
mp-962068,CaMgSn,-0.286866849999999,0.25602086499999904,0.0,False,NM,0.0015886,216
mp-867266,CaMgTl2,-0.266686155416668,0.0,0.0,False,NM,1e-07,225
mp-1516574,CaMnSnWO6,-2.198747393293102,0.18125397997726903,1.329799999999999,True,FM,4.9999997,216
mp-1058549,CaN,-0.44138177265624906,0.398168288437499,0.0,True,FM,1.0003367,225
mp-1521662,CaNbFeSnO6,-2.4007074735,0.19452513499998603,1.804899999999999,True,FM,5.0000009,216
mp-1183555,CaNdAg2,-0.301223394374996,0.0,0.0,False,NM,3.799999999999998e-06,225
mp-1183564,CaNdAu2,-0.8077484893749981,0.0029941187499990004,0.0,False,NM,6.4e-06,225
mp-867224,CaNdCd2,-0.34509426937499904,0.0,0.0,False,NM,2.8e-06,225
mp-1517322,CaNdEuSbO6,-2.83907420325,0.25713690313332704,0.20489999999999903,True,FM,7.0000001,216
mp-1520035,CaNdFeSnO6,-2.54306906525,0.19833291162500702,2.208,True,FM,5.0000008,216
mp-1519219,CaNdHfFeO6,-3.118562068749999,0.18010994800000002,2.0833,True,FM,5.0000007,216
mp-1521542,CaNdHfTiO6,-3.524502328083332,0.19043320675000003,0.0,False,NM,0.003676,216
mp-865955,CaNdHg2,-0.619156613124999,0.0,0.0,False,NM,1.2e-06,225
mp-866227,CaNdRh2,-0.510185246874999,0.019301107624996,0.0,False,NM,1e-07,225
mp-866220,CaNdZn2,-0.30792768687500005,0.0,0.0,False,NM,2.2e-06,225
mp-1522086,CaNdZrCrO6,-3.20695342975,0.199055479000001,2.4074,True,FM,3.0000005,216
mp-961667,CaNiTe,-0.5062206288888881,0.7333377600000011,0.0,False,NM,3.63e-05,216
mp-2605,CaO,-3.306019392499999,0.0,3.6301,False,NM,0.0,225
mp-20463,CaPbF6,-3.030607506249999,0.0,3.455899999999999,False,NM,0.0,225
mp-1183552,CaPmAg2,-0.30359460937500005,0.0,0.0,False,NM,3.299999999999999e-06,225
mp-862882,CaPmAu2,-0.8781849018749951,0.0,0.0,False,NM,1.2e-06,225
mp-862881,CaPmCd2,-0.342690436874997,0.0,0.0,False,NM,4e-07,225
mp-862883,CaPmHg2,-0.621058623125001,0.0,0.0,False,NM,5.2e-06,225
mp-1183567,CaPmMg2,-0.08034153187499901,0.0,0.0,False,NM,1.4e-06,225
mp-862884,CaPmPd2,-0.754423509374998,0.0,0.0,False,NM,2.2100000000000002e-05,225
mp-862886,CaPmPt2,-1.106369869375001,0.0,0.0,False,NM,4.1e-06,225
mp-862885,CaPmRh2,-0.556746816874998,0.016451274750004,0.0,False,NM,6e-07,225
mp-862888,CaPmZn2,-0.30823673437499904,0.0,0.0,False,NM,2e-07,225
mp-1517275,CaPr(SbO3)2,-2.170247872166666,0.522034450049994,0.0,False,NM,0.0024476,225
mp-866060,CaPrAg2,-0.306290548749997,0.0,0.0,False,NM,5e-07,225
mp-867257,CaPrCd2,-0.35011003291666404,0.0,0.0,False,NM,1.3e-06,225
mp-1522185,CaPrHfCrO6,-3.313105939166665,0.158191202749999,2.684099999999999,True,FM,3.0000006,216
mp-1521685,CaPrHfFeO6,-3.1270365901666652,0.16197323600000102,2.0903,True,FM,5.0000006,216
mp-867217,CaPrHg2,-0.6143249616666681,0.0,0.0,False,NM,7.699999999999999e-06,225
mp-1522801,CaPrMgBiO6,-2.518909539666666,0.192001690499975,1.6036000000000001,False,NM,0.0,216
mp-1519847,CaPrMnSbO6,-2.603217563959771,0.17241463299999701,1.0769,True,FM,4.9999996,216
mp-1522827,CaPrNbVO6,-3.043155794166666,0.16797257768749602,0.0,True,FM,2.9978688,216
mp-1183584,CaPrRh2,-0.48173200541666505,0.026719816874996003,0.0,False,NM,0.007845399999999001,225
mp-866015,CaPrZn2,-0.303852802916666,0.0,0.0,False,NM,1.83e-05,225
mp-1520536,CaPrZrCrO6,-3.215605593166665,0.18031005199999903,2.4468,True,FM,3.0000005,216
mp-1521801,CaPrZrFeO6,-3.0282782331666662,0.185350096250001,1.9476,True,FM,4.9999999,216
mp-864998,CaPuRh2,0.166147685312504,0.47444309031250403,0.0,True,FM,0.5007515,225
mp-631420,CaRe2Si,0.8283785837500011,1.079861385,0.0,False,NM,0.0001768,225
mp-631458,CaReBi,0.6631916624999881,1.265062191944451,0.0,False,NM,0.173445799999999,216
mp-1672,CaS,-2.436088926406249,0.0,2.3819,False,NM,0.0,225
mp-1183547,CaSbPd2,-0.7041708199999991,0.060343088101850004,0.0,False,NM,0.0012418,225
mp-1008223,CaSe,-2.057931684531251,0.25802613499999905,3.1661,False,NM,0.0002196,216
mp-1415,CaSe,-2.315957819531251,0.0,2.0728,False,NM,0.0,225
mp-1183560,CaSmAg2,-0.299959087499999,0.004305091249996,0.0,False,NM,7.0999999999999955e-06,225
mp-1227030,CaSmAl4,-0.44683606999999803,0.019224832499999,0.0,False,NM,0.0113866,216
mp-864620,CaSmCd2,-0.33884080124999905,0.0,0.0,False,NM,7e-07,225
mp-1518467,CaSmEuSbO6,-2.8844303790000003,0.22852310413332602,0.184899999999999,True,FM,6.9999996,216
mp-866014,CaSmHg2,-0.616676951249999,0.0,0.0,False,NM,8.099999999999999e-06,225
mp-1183908,CaSmIn2,-0.559262711874996,0.044574912499999,0.0,False,NM,0.0057965,225
mp-1183557,CaSmMg2,-0.07418694625000001,0.000769262499999,0.0,False,NM,8e-07,225
mp-1516667,CaSmMnSnO6,-2.572254263793104,0.27062887824999105,0.0,True,FM,4.0000003,216
mp-1519907,CaSmMnSnO6,-2.226422196793103,0.6164609452499921,0.0,True,FM,2.0380665,216
mp-1521401,CaSmMnSnO6,-2.258779259793104,0.584103882249991,0.0,True,FM,2.0000745,216
mp-1183576,CaSmPd2,-0.760200355000002,0.022264606666688003,0.0,False,NM,3.77e-05,225
mp-866280,CaSmRh2,-0.551134911249999,0.0050231543749950005,0.0,False,NM,1e-07,225
mp-866061,CaSmZn2,-0.30602266375000003,0.0,0.0,False,NM,2.7e-06,225
mp-977359,CaSnAu2,-0.5924160312499981,0.0,0.0,False,NM,4.999999999999999e-06,225
mp-8224,CaSnF6,-3.401542958125,0.001296618749999,5.3881,False,NM,0.0,225
mp-1182179,CaSnO6,-0.9064471743749991,0.777649729687505,0.0,True,FM,6.0000347,225
mp-861935,CaSnRh2,-0.551106108749998,0.0,0.0,False,NM,1.3000000000000001e-05,225
mp-38843,CaTa2O6,-3.382113790518517,0.09855069722222201,2.0982,False,NM,0.0016327,225
mp-631411,CaTa2Tl,0.581623672500001,0.8379493025000001,0.0,False,NM,0.0767886,216
mp-631395,CaTaTc,0.9948349675555471,1.373335069999996,0.0,False,NM,0.0005163,216
mp-1522105,CaTbEuNbO6,-3.291423341166667,0.18569168667447702,0.315299999999999,True,FM,7.0000002,216
mp-1519014,CaTbEuSbO6,-2.948490992166666,0.18743874969999202,0.1396,True,FM,7.0000002,216
mp-1521501,CaTbEuVO6,-3.070965423166667,0.254809087361598,0.0181,True,FM,6.9999998,216
mp-1183566,CaTbHg2,-0.609332303750001,0.0,0.0,False,NM,4.9000000000000005e-06,225
mp-1183553,CaTbPd2,-0.7930893362499911,0.023651620277778,0.0,False,NM,0.0018958999999990002,225
mp-1183546,CaTbRh2,-0.605651189166666,0.0,0.0,False,NM,2.7e-06,225
mp-1519,CaTe,-1.917514015000001,0.0,1.5535,False,NM,0.0,225
mp-866282,CaThRh2,-0.657040917499998,0.038905055714280004,0.0,False,NM,5.31e-05,225
mp-27315,CaTiF6,-3.971624565416666,0.0,4.5826,False,NM,0.0,225
mp-1520239,CaTiNbInO6,-2.862220598999999,0.17961778632639203,0.0,False,NM,4.7e-06,216
mp-1516396,CaTiNbSnO6,-2.8590682608333333,0.17956808243750003,0.0,False,NM,0.2260333,216
mp-984769,CaTl2Cd,-0.21536199666666903,0.025357497708332,0.0,False,NM,0.001098899999999,225
mp-984791,CaTmCd2,-0.303749737500002,0.009818232499998001,0.0,False,NM,1e-07,225
mp-1183581,CaTmHg2,-0.5804501362500071,0.0,0.0,False,NM,2.05e-05,225
mp-1183672,CaTmIn2,-0.539571607500001,0.024152579499997003,0.0,False,NM,7e-07,225
mp-1183593,CaTmPd2,-0.8082478820833501,0.036068240277774,0.0,False,NM,0.0012975,225
mp-866226,CaTmPt2,-1.179210548625,0.025198216458335,0.0,False,NM,0.0034027999999990005,225
mp-1183550,CaTmRh2,-0.6544295799999981,0.009604605486113001,0.0,False,NM,3.1e-06,225
mp-1183568,CaTmZn2,-0.287468017500001,0.015602091249999001,0.0,False,NM,1.699999999999999e-06,225
mp-1517951,CaVSnWO6,-2.260939558500001,0.184738090791666,0.457999999999999,True,FM,2.999999599999999,216
mp-1183556,CaYCd2,-0.324767139999998,0.0009386125000000001,0.0,False,NM,7e-07,225
mp-866223,CaYHg2,-0.602788378750002,0.0,0.0,False,NM,0.0,225
mp-1183551,CaYPd2,-0.780066180833326,0.021626159027778,0.0,False,NM,0.0017245,225
mp-1183571,CaYPt2,-1.140012507500003,0.023774027583328,0.0,False,NM,3.799999999999998e-06,225
mp-865002,CaYRh2,-0.5890388174999981,0.0015785204861110001,0.0,False,NM,4e-06,225
mp-1183583,CaYZn2,-0.29459978749999904,0.0018815937500000002,0.0,False,NM,3e-07,225
mp-1183594,CaYb3,0.189355756249995,0.189355756249995,0.0,True,FM,1.6665185,225
mp-1227028,CaYbAl4,-0.43474854083333203,0.026858437499999003,0.0,False,NM,1e-06,216
mp-1183573,CaYbCd2,-0.359801973749998,0.013624752500000002,0.0,False,NM,3.6e-06,225
mp-1183612,CaYbEu2,0.16217082874999902,0.16217082874999902,0.0,True,FM,15.0000654,225
mp-1183565,CaYbGa2,-0.52664644875,0.012812946406253,0.0,False,NM,4.4e-06,225
mp-1183588,CaYbHg2,-0.5787890575000031,0.0044338225000040005,0.0,False,NM,6e-07,225
mp-1183625,CaYbIn2,-0.532472083750001,0.024345971875,0.0,False,NM,5e-07,225
mp-1183582,CaYbPb2,-0.49422107124999504,0.0,0.0,False,NM,1.5300000000000003e-05,225
mp-1183592,CaYbPd2,-0.8130302612499981,0.027354858402780003,0.0,False,NM,7e-07,225
mp-1183595,CaYbTl2,-0.43221734125000205,0.010889145000000001,0.0,False,NM,1.2e-06,225
mp-1183577,CaYbZn2,-0.29762851375000204,0.038476308749999,0.0,False,NM,3.8e-05,225
mp-1038783,CaZn,0.378672365,0.6261664825000001,0.0,False,NM,0.0004299,216
mp-1039447,CaZn,-0.06655414499999901,0.18093997250000002,0.0,False,NM,0.0004389,225
mp-1039032,CaZn3,-0.15792993999999902,0.10749360416666501,0.0,False,NM,0.0007811,225
mp-1100433,CaZnSi,-0.206113539999999,0.221644315,0.0,False,NM,0.0003074,216
mp-1517738,CaZnSnWO6,-2.133237551499999,0.18971058441666402,2.927,False,NM,0.0,216
mp-1025456,CaZrF6,-4.088790178125,0.012040444687499001,6.653799999999999,False,NM,0.0,225
mp-1517467,CaZrNbInO6,-2.9280227106666663,0.195873470513893,0.5202,False,NM,0.0,216
mp-631394,CaZrPd,0.768503563124999,1.287570058263892,0.0,False,NM,0.0030393,216
mp-861662,CaZrRh2,-0.617494234606482,0.04841057997684901,0.0,False,NM,3.399999999999998e-06,225
mp-1521514,CaZrTiSnO6,-2.914365433416668,0.224400513499999,2.6387,False,NM,0.0,216
mp-1096861,Cd,0.037120430000001,0.037120430000001,0.0,False,NM,3e-07,225
mp-1147639,Cd(Cu3O4)2,-0.9923819633333331,0.014818015999999,0.0,False,NM,0.0046241,225
mp-31170,Cd2AgAu,-0.151908938750001,0.0,0.0,False,NM,1.4e-06,225
mp-1183537,Cd2AgPt,-0.174336392916664,0.0,0.0,False,NM,0.0,225
mp-861878,Cd2AgRh,-0.09371767624999801,0.0,0.0,False,NM,3e-07,225
mp-865926,Cd2PdRh,-0.23827578749999903,0.0,0.0,False,NM,1e-07,225
mp-865929,Cd2PtRh,-0.1725645325,0.0,0.0,False,NM,4e-07,225
mp-1183541,Cd2RhAu,-0.14111849749999902,0.0,0.0,False,NM,7e-07,225
mp-1183630,Cd3Fe,0.359889482500001,0.359889482500001,0.0,True,FM,2.6513897,225
mp-983602,CdAg2Au,-0.088548262499998,0.027605498000003004,0.0,False,NM,0.0,225
mp-1183634,CdAgAu2,-0.13724240375000102,0.014633118425905001,0.0,False,NM,1e-07,225
mp-867260,CdAgPd2,-0.24643497291666402,0.0,0.0,False,NM,1e-07,225
mp-542065,CdAgSb,-0.031579532777778,0.032333700138888005,0.0,False,NM,0.0006667999999990001,216
mp-1006882,CdC,2.108579146249999,2.108579146249999,0.0,False,NM,0.0014368999999990002,216
mp-1006887,CdC,1.9901083212500001,1.9901083212500001,0.0,False,NM,0.0063349,225
mp-10685,CdCuSb,0.252541321249997,0.316454554166664,0.0,False,NM,0.0005225,216
mp-568800,CdCuSb,0.14757317791666402,0.21148641083333003,0.0,False,NM,0.0006100999999990001,216
mp-241,CdF2,-2.457565739999999,0.0,2.8977,False,NM,0.0,225
mp-861909,CdGaRh2,-0.357465039374998,0.0,0.0,False,NM,3.94e-05,225
mp-16268,CdGeP2,0.44274967351190303,0.593581306249998,0.0,False,NM,7.8e-06,225
mp-1183639,CdHg3,0.036664294374999004,0.036664294374999004,0.0,False,NM,0.0,225
mp-1183640,CdHgPd2,-0.273911183125,0.005209170000000001,0.0,False,NM,1e-07,225
mp-1226914,CdIn2(SeS)2,-0.819796971145831,0.032103324642857,0.6684000000000001,False,NM,2.8e-06,216
mp-1183674,CdIn3,0.0641602675,0.0641602675,0.0,False,NM,2.4e-06,225
mp-862374,CdInPd2,-0.462063496666664,0.0,0.0,False,NM,4e-07,225
mp-977367,CdInRh2,-0.363751637499998,0.0,0.0,False,NM,0.000379,225
mp-631388,CdIrRu,0.622512745477645,0.696568666737803,0.0,False,NM,0.0114301,216
mp-1008918,CdN,0.8603301724999991,0.8603301724999991,0.0,False,NM,0.007615899999999001,225
mp-1008921,CdN,0.9419105625,0.9419105625,0.0,True,FM,0.7754751,216
mp-631410,CdNiP,0.551679837188494,0.8657665468055561,0.0,True,FM,0.087225699999999,216
mp-1132,CdO,-1.346151347499999,0.0,0.0,False,NM,3e-07,225
mp-1213862,CdOs2(NO2)4,0.27763168466666704,1.374567982777779,0.0,True,FiM,10.0,216
mp-631403,CdPOs2,0.844021450505948,1.071785644999998,0.0,False,NM,0.002351,216
mp-606650,CdPd(CN)6,0.32413429142857103,0.38006646214285406,3.5839,False,NM,5.97e-05,225
mp-1183633,CdPd2Au,-0.2871393425,0.0,0.0,False,NM,1e-07,225
mp-1213964,CdPt(CN)6,0.19485624857142902,0.235937887857142,5.3795,False,NM,0.0001202,225
mp-1104869,CdRe2(NO2)4,0.10998883500000001,1.5110830716833341,0.0,True,FM,9.9993576,216
mp-1183697,CdRh2Pb,-0.061599629999998004,0.0,0.0,False,NM,0.0002475,225
mp-2469,CdS,-0.7738951664062481,0.0027132225,1.0492,False,NM,0.0,216
mp-370,CdS,-0.643201676406249,0.133406712499999,0.27930000000000005,False,NM,0.0007917,225
mp-16246,CdSbAu,-0.128421373333334,0.012246647037038,0.0,False,NM,1e-07,216
mp-1055,CdSe,-0.691781186171874,0.14582500750000102,0.0,False,NM,8.599999999999999e-06,225
mp-2691,CdSe,-0.8370525111718741,0.000553682500001,0.5096,False,NM,0.0,216
mp-1008472,CdSiP2,0.5245032522619061,0.7970854312500001,0.0,False,NM,9.470000000000001e-05,225
mp-1226720,CdSnAu,-0.19565236666666802,0.0,0.0,False,NM,1e-07,216
mp-1226723,CdSnAu,0.009819416666668001,0.20547178333333702,0.0,False,NM,0.00013869999999900002,216
mp-861877,CdSnRh2,-0.329812378749998,0.0,0.0,False,NM,0.0016895,225
mp-2388,CdTe,-0.387466915,0.17327309000000202,0.0,False,NM,1.899999999999999e-06,225
mp-406,CdTe,-0.5607400050000031,0.0,0.5846,False,NM,0.0,216
mp-28,Ce,0.0,0.0,0.0,False,NM,3.299999999999999e-06,225
mp-1229288,Ce15Ni32,-0.37606019489361503,0.002415402695036,0.0,True,FM,5.3065058,216
mp-541851,Ce2(Ni7B2)3,-0.334654490517239,0.004549549984322001,0.0,True,FM,1.395934899999999,225
mp-1193751,Ce2(Si2Pd7)3,-0.7157215168965501,0.0,0.0,True,FM,1.0878832,225
mp-569703,Ce20Mg19Zn81,-0.25894294495833203,0.0,0.0,True,FM,9.598289,216
mp-647805,Ce21Fe8Bi7C12,-0.46697677604166504,0.0,0.0,True,FiM,8.0577333,225
mp-1183760,Ce2AgHg,-0.157455481041666,0.049034924375000004,0.0,True,FM,2.6665608,225
mp-867239,Ce2AgPb,-0.231864235416663,0.083033827499998,0.0,True,FM,3.0174834,225
mp-1183725,Ce2AgSn,-0.33591212666666403,0.08691393333333301,0.0,True,FM,3.0019376,225
mp-985438,Ce2CdHg,-0.312928782500002,0.045386645625001006,0.0,True,FM,2.6434727000000002,225
mp-1183867,Ce2CdIn,-0.37271823674999904,0.043177451249999006,0.0,True,FM,2.2459148,225
mp-1183762,Ce2CdPb,-0.227336059999997,0.065631495416667,0.0,True,FM,3.4733167,225
mp-1183809,Ce2HgPb,-0.333753030625002,0.010110550416663,0.0,True,FM,3.0567217,225
mp-984682,Ce2MgAl,-0.084988476249998,0.090170395208334,0.0,True,FM,0.8366996,225
mp-1183801,Ce2MgCd,0.025175216250001003,0.127261632916667,0.0,True,FM,2.3399881,225
mp-1184007,Ce2MgIn,-0.10995562041666401,0.06389138875,0.0,True,FM,1.5742492000000001,225
mp-1183811,Ce2MgPb,-0.148065838749998,0.085696329999999,0.0,True,FM,2.1782567,225
mp-1183747,Ce2SnHg,-0.43581911187500005,0.042261160749998,0.0,True,FM,1.9818259,225
mp-1183716,Ce2TlAg,-0.117943408749999,0.07456469124999901,0.0,True,FM,2.3410746,225
mp-985471,Ce2ZnHg,-0.203573703125,0.0470671875,0.0,True,FM,2.3292882,225
mp-1183763,Ce2ZnIn,-0.215180929166664,0.06094670074999801,0.0,True,FM,1.1893728,225
mp-977439,Ce2ZnPb,-0.24863233749999702,0.068825110416667,0.0,True,FM,1.8755513,225
mp-672275,Ce3(Ge3Pd10)2,-0.6443028810344811,0.017549112758625002,0.0,True,FM,2.7178588,225
mp-1214002,Ce3(P3Pd10)2,-0.6756789623399001,0.0,0.0,True,FM,2.8443381,225
mp-1192814,Ce3(Si3Pd10)2,-0.7836776331034511,0.0,0.0,True,FM,2.2193239,225
mp-662609,Ce3(Si3Pd10)2,-0.5953309662068951,0.18834666689655802,0.0,True,FM,1.5991836,225
mp-1214072,Ce3Cr10N11,-0.9583520820833321,0.088522459999996,0.0,True,FiM,0.793791599999999,225
mp-1039189,Ce3Mg,0.178220162916666,0.196416275833335,0.0,True,FM,4.249072,225
mp-568452,Ce3Si11Pt23,-0.876291151351349,0.0,0.0,True,FM,4.9678092,225
mp-1213878,Ce4CdIr,-0.314804554583331,0.035298944583334005,0.0,True,FM,16.4507109,216
mp-1214047,Ce4CdNi,-0.09981896499999701,0.061638104166668005,0.0,True,FM,17.1241756,216
mp-1213866,Ce4CdPd,-0.20718396833333103,0.092749907500002,0.0,True,FM,18.0335744,216
mp-1213872,Ce4CdPt,-0.36540023249999704,0.052811970000002005,0.0,True,FM,17.8481748,216
mp-1191201,Ce4CdRu,-0.178140635416664,0.030142947824074003,0.0,True,FiM,15.6505503,216
mp-1213984,Ce4MgRh,-0.18168195041666302,0.089349670972223,0.0,True,FM,17.0694246,216
mp-866461,Ce4MgRu,-0.09371930208333101,0.05830148587963001,0.0,True,FiM,14.8560995,216
mp-1226916,Ce5S8,-2.211355457499997,0.11501440903846201,0.0,True,FM,4.0124988,216
mp-1192664,Ce6Mg23As,-0.18593581425000102,0.0,0.0,True,FM,8.2141487,225
mp-1192742,Ce6Mg23C,-0.0944866545,0.0,0.0,True,FM,7.5624392,225
mp-1192839,Ce6Mg23Ge,-0.046742578333332,0.010261497750000001,0.0,True,FM,6.7557477,225
mp-1192963,Ce6Mg23P,-0.10113412965476001,0.001853336333334,0.0,True,FM,6.7489578,225
mp-1192592,Ce6Mg23Sb,-0.06071697749999801,0.022805397833333,0.0,True,FM,6.4429413,225