material_id,formula,formation_energy,ehull,band_gap,is_magnetic,magnetic_ordering,total_magnetization,spacegroup
mp-1517218,Sr2TbSbO6,-3.047678469666667,0.032978995249999005,3.4629,False,NM,0.0,225
mp-1520448,Sr2TbSeO6,-2.65065377290104,0.184134678687495,0.0,True,FM,0.3293521,225
mp-1517766,Sr2TbSnO6,-2.847934036166666,0.11246902631249701,0.0,False,NM,1.0000001,225
mp-1519771,Sr2TbTiO6,-3.298078454999999,0.123655732437512,0.0,False,NM,0.999999899999999,225
mp-1521423,Sr2TbVO6,-3.143236623666666,0.12141954043749101,1.6184,False,NM,0.0,225
mp-1520577,Sr2TbWO6,-3.023963124666667,0.144056330625,0.0,True,FM,1.0,225
mp-1521033,Sr2TbZrO6,-3.305917443666666,0.158691461687499,0.0,False,NM,1.0,225
mp-1520382,Sr2TiBiO6,-2.774480701333334,0.13165976199999901,0.0,False,NM,1.43e-05,225
mp-1094048,Sr2TiFeO6,-2.865295790333333,0.022026803999999,0.0,True,FM,4.2093294,225
mp-1218686,Sr2TiMnO6,-3.027896759626438,2.561550000024226e-05,0.9951999999999991,True,AFM,1e-07,225
mp-1218376,Sr2TiMoO6,-3.038514891333334,0.035785612499998,0.0,True,FM,1.9999928999999992,225
mp-1520180,Sr2TiSbO6,-2.913536672333333,0.12099626260002301,0.0,False,NM,1.699999999999999e-06,225
mp-1519075,Sr2TiSnO6,-3.072028314833333,0.022482149749996003,2.985399999999999,False,NM,0.0,225
mp-862740,Sr2TlCd,-0.377497783333335,0.0,0.0,False,NM,1.48e-05,225
mp-1187099,Sr2TlHg,-0.48176035645833604,0.0,0.0,False,NM,0.0006535,225
mp-1187125,Sr2TlIn,-0.41905118500000205,0.003278019687499,0.0,False,NM,0.0195221,225
mp-1187124,Sr2TlPb,-0.580310782500006,0.017313429999994003,0.0,False,NM,0.0002815,225
mp-1187091,Sr2TlZn,-0.32630916875000004,0.013191636249999,0.0,False,NM,2.3700000000000003e-05,225
mp-13940,Sr2TmReO6,-3.048674391250002,0.058439533041676005,0.0,True,FM,2.0008048,225
mp-1067817,Sr2UCo,1.570013568541668,1.646744479791667,0.0,False,NM,0.1218663,225
mp-1205705,Sr2UCrO6,-3.272775954999999,0.028327752071431,0.9756999999999991,True,FiM,2.0042018,225
mp-1206007,Sr2UInO6,-3.113024176666666,0.11097046944444601,1.0488,True,FM,0.999458699999999,225
mp-1066751,Sr2UMn,1.098378050517243,1.11565231875,0.0,True,FiM,0.475959099999999,225
mp-1064703,Sr2UNi,1.108333275000002,1.214191734062501,0.0,True,FM,4.0976824,225
mp-1521078,Sr2VInO6,-2.667111297666667,0.11858735374999702,1.797499999999999,False,NM,0.0,225
mp-1519447,Sr2VSnO6,-2.6894611535,0.09439728912499801,0.0,True,FM,0.9999998,225
mp-631384,Sr2VW,1.540139326666668,1.570865391666664,0.0,True,FM,6.560739199999999,225
mp-1519311,Sr2VWO6,-2.788499068,0.012787181062492001,0.8022,True,FM,3.0000004,225
mp-1522479,Sr2YBiO6,-2.7400615,0.06703711825,2.0265,False,NM,0.0,225
mp-1080434,Sr2YCoO6,-2.57161409725,0.07619040572917,0.0,True,FiM,4e-06,225
mp-1079925,Sr2YCrO6,-2.858571588,0.148050018624994,0.0,True,FM,0.9978197,225
mp-1520823,Sr2YNbO6,-3.392732060999999,0.073831718999999,2.8887,False,NM,0.0,225
mp-7889,Sr2YReO6,-2.989033672249999,0.08403000685417601,0.0,True,FM,2.0002989,225
mp-6110,Sr2YSbO6,-3.043414022,0.051852186,3.512199999999999,False,NM,4e-06,225
mp-1517134,Sr2YVO6,-3.14178828,0.11579059643754501,1.6134,False,NM,0.0,225
mp-1523213,Sr2YWO6,-3.022396386000001,0.141886216333347,0.0,True,FM,1.0,225
mp-13941,Sr2YbReO6,-2.915716727,0.0,0.0,True,FM,2.0,225
mp-1206701,Sr2YbUO6,-3.5437607132499993,0.026920614500028,2.1809,True,FM,1.0000001,225
mp-1187111,Sr2ZnGa,-0.312904642499999,0.024140984732145,0.0,False,NM,0.033009199999999,225
mp-1187096,Sr2ZnHg,-0.353059878125002,0.013512228125000001,0.0,False,NM,3e-06,225
mp-1187231,Sr2ZnIn,-0.30832215416666503,0.0053880728125,0.0,False,NM,4.22e-05,225
mp-18829,Sr2ZnMoO6,-2.5475482929999993,0.025288399000004003,2.3108,False,NM,3.3e-05,225
mp-1187098,Sr2ZnPb,-0.537701737519235,0.020680136999999002,0.054200000000000005,False,NM,2.0200000000000003e-05,225
mp-1187101,Sr2ZnPt,-0.44810020499999903,0.10918116937500001,0.0,False,NM,0.000255199999999,225
mp-19282,Sr2ZnWO6,-2.663847809000001,0.02301323399999,3.4104,False,NM,2.9300000000000004e-05,225
mp-1079027,Sr2ZrCoO6,-2.695174324,0.135564963427416,0.0,True,FM,3.2188041,225
mp-1080742,Sr2ZrCrO6,-3.11760866075,0.035371136968743,0.0,True,AFM,1.9100000000000003e-05,225
mp-1520386,Sr2ZrFeO6,-2.889830738999999,0.05249012374999901,0.0,True,FM,4.0000001,225
mp-1523090,Sr2ZrGeO6,-3.1598895225,0.04249755941667,4.057499999999999,False,NM,0.0,225
mp-1080730,Sr2ZrMnO6,-3.075611313793104,0.004860288999999,1.506,True,AFM,0.0,225
mp-1521908,Sr2ZrNbO6,-3.370765247,0.05418686821430101,0.0,False,NM,0.000335199999999,225
mp-1522474,Sr2ZrSnO6,-3.1244928975,0.025015835500001003,3.902,False,NM,0.0,225
mp-1518526,Sr2ZrTiO6,-3.576497801333333,0.030162758749998003,2.3507,False,NM,0.0,225
mp-1079272,Sr2ZrVO6,-3.269662016,0.020152114180115,0.0,True,FM,3.998742,225
mp-1522533,Sr2ZrWO6,-3.036268159,0.11993376024999401,0.0,True,FM,1.9999999,225
mp-1187107,Sr3Ca,0.057118014999998,0.057118014999998,0.0,False,NM,1.236791599999999,225
mp-1187130,Sr3Eu,0.072289546249997,0.072289546249997,0.0,True,FM,7.852201,225
mp-31349,Sr3In,-0.11891092416666602,0.1316895325,0.0,False,NM,0.2161303,225
mp-1187127,Sr3La,0.149374356249999,0.149374356249999,0.0,False,NM,0.0642008,225
mp-1094270,Sr3Mg,0.073528424583331,0.10733889958333201,0.0,False,NM,0.0141515,225
mp-1187122,Sr3Mo,0.839717532499999,0.839717532499999,0.0,True,FM,3.142682799999999,225
mp-1205668,Sr3MoO6,-2.719260483999999,0.10991281250000001,2.284099999999999,False,NM,1.4200000000000001e-05,225
mp-1187120,Sr3Nb,0.7340679799999991,0.7340679799999991,0.0,True,FM,3.0219311,225
mp-1208719,Sr3NbO6,-2.889252344,0.213987933499999,0.0,False,NM,1.0009064,225
mp-1187159,Sr3Pa,0.722541432500001,0.722541432500001,0.0,True,FM,2.951967299999999,225
mp-1187140,Sr3Th,0.403074097499999,0.403074097499999,0.0,False,NM,0.0267208,225
mp-1187262,Sr3U,0.788919642500001,0.788919642500001,0.0,True,FM,4.0384529,225
mp-1187144,Sr3W,1.078291252500001,1.078291252500001,0.0,True,FM,2.7160931,225
mp-981378,Sr3Yb,0.280643488749998,0.280643488749998,0.0,False,NM,1.15e-05,225
mp-989402,Sr6In2NF,-0.9959248813333331,0.024934263426469,0.0,False,NM,0.0703162,225
mp-2272,Sr6Li23,0.005775969885056,0.005775969885056,0.0,False,NM,0.0004595,225
mp-30782,Sr6Mg23,-0.07009129706896501,0.0,0.0,False,NM,0.3338567,225
mp-989592,Sr6Sn2NF,-1.20738671,0.0,0.0,False,NM,0.0022301,225
mp-989540,Sr6Sn2NO,-1.158692742,0.0,0.0,False,NM,0.0346673,225
mp-1195752,Sr7Cu44As23,-0.27746189054053805,0.0014703327702710002,0.0,False,NM,0.104567799999999,225
mp-1187150,SrAcAu2,-0.8110818843749921,0.0016786053421140002,0.0,False,NM,8.099999999999999e-06,225
mp-1187153,SrAcCd2,-0.308483430624999,0.0,0.0,False,NM,0.000319499999999,225
mp-1187170,SrAcGa2,-0.437160946875,0.129508107500001,0.0,False,NM,2.7e-06,225
mp-867925,SrAcHg2,-0.5236201743750021,0.0,0.0,False,NM,4.9000000000000005e-06,225
mp-1187374,SrAcIn2,-0.40803126645833204,0.0,0.0,False,NM,1.54e-05,225
mp-978953,SrAcTl2,-0.48993082687499606,0.0,0.0,False,NM,2.2e-06,225
mp-978929,SrAcZn2,-0.214775271874998,0.0,0.0,False,NM,7.499999999999998e-06,225
mp-961672,SrAlGa,0.345263411666666,0.792648255000001,0.0,False,NM,2e-05,216
mp-631552,SrBiB,0.829275844551266,1.5807060342735042,0.0,False,NM,0.0001737,216
mp-1100431,SrBrCl,-2.250397281666667,0.44909092975000003,2.9008000000000003,False,NM,0.0003639,216
mp-1208639,SrC,1.199147206805555,1.294638433055555,0.0,True,FM,1.9994581,225
mp-1187155,SrCa3,0.038698349999998,0.038698349999998,0.0,False,NM,1.2038336,225
mp-1218345,SrCaAl4,-0.30421225166666704,0.016013822499997003,0.0,False,NM,6.2e-06,216
mp-1517305,SrCaBiSbO6,-2.304436976999999,0.18878925837500102,1.6974,False,NM,0.0,216
mp-1516565,SrCaCeCoO6,-2.6676836340000003,0.17845027066666502,0.0,True,FiM,1.0,216
mp-1519881,SrCaCeFeO6,-2.777178776,0.17366940999999803,0.0,True,FM,4.0000005,216
mp-1520006,SrCaCeGeO6,-3.0441066335,0.19966808074998701,2.0936,False,NM,0.0,216
mp-1517796,SrCaCeNiO6,-2.598733724999999,0.14558381249999,1.361,False,NM,0.0,216
mp-1522825,SrCaCeTiO6,-3.4255440913333333,0.189643792,2.307,False,NM,0.0,216
mp-1520949,SrCaCrBiO6,-2.288313219,0.19280188087501202,0.27930000000000005,True,FM,3.0000001,216
mp-1516265,SrCaCuBiO6,-1.903751758,0.16686742267499802,0.0,False,NM,1.899999999999999e-06,216
mp-1520385,SrCaDyBiO6,-2.6835750141666663,0.148515657999986,2.0169,False,NM,0.0,216
mp-1517169,SrCaDyFeO6,-2.640102904166665,0.13600408799999,0.29749999999999904,True,FiM,2.9972345,216
mp-1518514,SrCaDyMnO6,-2.779711638959772,0.143124717976188,0.0,True,FiM,3.494553299999999,216
mp-1523329,SrCaDyNbO6,-3.337451016166666,0.147002571187501,2.8784,False,NM,0.0,216
mp-1517046,SrCaDySbO6,-2.996550797166665,0.10326139525000201,3.3225,False,NM,0.0,216
mp-1517733,SrCaDyVO6,-3.100331614166666,0.191564517761936,1.6157,False,NM,0.0,216
mp-1187175,SrCaEu2,0.042235035833332005,0.042235035833332005,0.0,True,FM,14.4559607,225
mp-1522007,SrCaEuBiO6,-2.428703060499999,0.23498786779999503,0.0,True,FM,5.9999998,216
mp-1519945,SrCaEuFeO6,-2.4160385945,0.220100091999981,0.0,True,FM,9.0010025,216
mp-1518897,SrCaEuMnO6,-2.536024744293104,0.24684330697618803,0.0,True,FiM,8.0000013,216
mp-1518637,SrCaEuSbO6,-2.7277351135,0.20829618899999003,0.0,True,FM,6.0000465,216
mp-1519249,SrCaEuSbO6,-2.7292228815,0.20680842099999003,0.0,True,FM,6.0000002,216
mp-1517490,SrCaEuSeO6,-2.530855032734375,0.21576046274999902,0.0,True,FM,6.9892148,216
mp-1516941,SrCaEuWO6,-2.9437157665,0.11474212572916001,0.564599999999999,True,FM,7.0000013,216
mp-1520073,SrCaFeBiO6,-2.155213113,0.08949794315002,0.4131,True,FM,5.0000005,216
mp-1521717,SrCaFeSnO6,-2.3310583895,0.127710582250001,0.0,True,FM,4.0363872,216
mp-1516278,SrCaGaBiO6,-2.27395230075,0.124697215564585,0.0,False,NM,0.0,216
mp-1520906,SrCaGdBiO6,-2.637888660999999,0.184015778999985,1.7155,True,FM,7.0000001,216
mp-1522834,SrCaGdNbO6,-3.283809921,0.1732351694375,2.4736000000000002,True,FM,7.0000002,216
mp-1521218,SrCaGdSbO6,-2.945470776999999,0.11329792120833901,3.1028000000000002,True,FM,6.9999999,216
mp-1516660,SrCaHfCoO6,-2.756012489000001,0.17090916583332202,0.0,True,FM,4.9533989,216
mp-1517346,SrCaHfFeO6,-2.926848272,0.095112207999999,0.0,True,FM,4.0000008,216
mp-1517520,SrCaHfNbO6,-3.385635119,0.129979068343745,0.0,False,NM,0.192422099999999,216
mp-1519132,SrCaHfSnO6,-3.150870847499999,0.102589137750001,3.6634,False,NM,0.0,216
mp-1518656,SrCaHfTiO6,-3.614766117333333,0.07153406000000101,2.4601,False,NM,0.0,216
mp-1522440,SrCaHfVO6,-3.264896683999999,0.115524709937508,0.0,True,FM,1.0000001,216
mp-1522396,SrCaHfWO6,-3.060122713999999,0.188815862749994,0.0,True,FM,2.0,216
mp-1522984,SrCaHfZrO6,-3.63169507,0.10960337575002801,3.4147,False,NM,0.0,216
mp-980947,SrCaHg2,-0.5187959737500011,0.018665545000002,0.0,False,NM,3.5e-06,225
mp-980948,SrCaIn2,-0.424974315833332,0.028128486562498,0.0,False,NM,4.8e-06,225
mp-1517138,SrCaInBiO6,-2.164531368666666,0.14454130555000202,0.0,False,NM,0.0,216
mp-1520901,SrCaInSbO6,-2.472024451666667,0.11635001262500001,1.236799999999999,False,NM,0.0,216
mp-1519169,SrCaLaBiO6,-2.593261904500001,0.24789921449999902,2.2594,False,NM,0.0,216
mp-1520944,SrCaLaNbO6,-3.258833179499999,0.196702463479168,2.4044,False,NM,0.0,216
mp-1519795,SrCaLaSbO6,-2.8741241985,0.222224416,3.1114,False,NM,0.0,216
mp-1522791,SrCaMnNbO6,-2.913664076793104,0.094659839374992,0.0,True,FM,4.0000005,216
mp-1520083,SrCaMnWO6,-2.674870084793101,0.09784180525000001,1.566,True,FM,4.9999997,216
mp-1519250,SrCaNbFeO6,-2.8748709199999993,0.057955538499999,1.7541,True,FM,5.0000009,216
mp-1522466,SrCaNbInO6,-2.871862377666666,0.11936728395832301,3.4575,False,NM,0.0,216
mp-1516876,SrCaNbVO6,-3.058273209,0.07240083221876101,0.0,True,FM,2.0000001,216
mp-1519815,SrCaNbWO6,-2.816409505,0.18097859424999202,0.6203000000000001,True,FM,3.0,216
mp-1517289,SrCaNdFeO6,-2.558859223749999,0.16173348050000402,0.7082,True,FM,3.0000008,216
mp-1517377,SrCaNdFeO6,-2.522696650749999,0.19789605350000303,0.299399999999999,True,FM,3.0000004,216
mp-1518220,SrCaNdMnO6,-2.673607614543104,0.19335413285118802,0.0,True,FiM,1.9999997,216
mp-1518578,SrCaNdSbO6,-2.873393289749999,0.153429108937497,3.0946,False,NM,0.0,216
mp-1519020,SrCaNdSbO6,-2.85788204175,0.168940356937497,3.0791,False,NM,0.0,216
mp-1518274,SrCaNiBiO6,-1.900612383999999,0.152762978425003,0.0,True,FM,1.0000002,216
mp-1517272,SrCaPrFeO6,-2.5685474391666663,0.140878113392855,0.6846000000000001,True,FM,2.999645499999999,216
mp-1517216,SrCaPrSbO6,-2.845516474166666,0.16522905643749602,3.0684,False,NM,0.0,216
mp-1519381,SrCaPrSbO6,-2.870372161166666,0.140373369437496,3.1144,False,NM,0.0,216
mp-962057,SrCaSi,0.18183951416666602,0.708119464999999,0.45409999999999906,False,NM,0.000454,216
mp-1523159,SrCaSmBiO6,-2.6107082685,0.19555372950000002,2.1109,False,NM,0.0,216
mp-1521765,SrCaSmFeO6,-2.5370300985,0.20330356556248902,0.7272000000000001,True,FM,3.000001,216
mp-1521866,SrCaSmFeO6,-2.5659331515,0.174400512562488,0.2989,True,FM,3.0000005,216
mp-1522553,SrCaSmMnO6,-2.696601852293104,0.19046117653868902,0.0,True,FiM,2.0000006,216
mp-1519990,SrCaSmNbO6,-3.2502728015,0.19840745775000102,2.864099999999999,False,NM,0.0,216
mp-1523223,SrCaSmSbO6,-2.9189718105,0.141224050916664,3.2016,False,NM,0.0,216
mp-962065,SrCaSn,-0.054899408333332005,0.619570900833332,0.158199999999999,False,NM,0.0007496,216
mp-1520449,SrCaTbBiO6,-2.670512635666666,0.173998408000025,2.0534,False,NM,0.0,216
mp-1517127,SrCaTbFeO6,-2.627031705666667,0.14335910993748802,0.2963,True,FiM,3.0000001,216
mp-1518246,SrCaTbGeO6,-2.863238301166666,0.19792882243749702,0.0,False,NM,0.9999988,216
mp-1522128,SrCaTbNbO6,-3.3205194576666672,0.158217953124999,2.865,False,NM,0.0,216
mp-1518602,SrCaTbNiO6,-2.400469340666666,0.168772163999999,0.0,True,FM,1.0,216
mp-1519047,SrCaTbSbO6,-2.982662753666667,0.10061364212499901,3.3076,False,NM,0.0,216
mp-1522242,SrCaTbTiO6,-3.231998538,0.201757901812498,0.0,False,NM,1.0000011,216
mp-1517712,SrCaTbVO6,-3.084015487666667,0.202164467699422,1.616699999999999,False,NM,0.0,216
mp-1516720,SrCaTiNbO6,-3.3348412683333333,0.049903068656256,0.0,False,NM,2.1000000000000002e-05,216
mp-972119,SrCaTl2,-0.49382606999999706,0.009532575000001,0.0,False,NM,4.599999999999997e-06,225
mp-1518195,SrCaVInO6,-2.617201030666666,0.180261375011902,1.7895,False,NM,0.0,216
mp-1521594,SrCaVWO6,-2.737379819,0.09342185729166201,0.6616999999999991,True,FM,2.999999599999999,216
mp-1521165,SrCaYBiO6,-2.665108212000001,0.172607583500026,2.074899999999999,False,NM,0.0,216
mp-1519736,SrCaYNbO6,-3.322495085999999,0.15570990940624602,2.8753,False,NM,0.0,216
mp-1519209,SrCaYSbO6,-2.97898889,0.106953334968756,3.3595,False,NM,0.0,216
mp-1520379,SrCaYVO6,-3.083408752000001,0.19569391569942002,1.6094,False,NM,0.0,216
mp-1518148,SrCaZnWO6,-2.612264107,0.10217889337499801,3.3286,False,NM,0.0,216
mp-1522114,SrCaZrCrO6,-3.039029287999999,0.138275922416671,0.0,True,FM,2.0000004,216
mp-1519567,SrCaZrFeO6,-2.842691321000001,0.103887662250007,0.0,True,FM,4.0000006,216
mp-1521089,SrCaZrNbO6,-3.310930716,0.129323311343741,0.0,False,NM,0.0008217,216
mp-1522650,SrCaZrSnO6,-3.0641044865,0.114002451000001,3.724,False,NM,0.0,216
mp-1520998,SrCaZrTiO6,-3.526569539333333,0.08434914124999901,2.363999999999999,False,NM,0.0,216
mp-1519370,SrCaZrVO6,-3.180357429,0.12468958043750701,0.0,True,FM,0.9999998,216
mp-1187152,SrCd3,-0.20090107249999903,0.049930038385416,0.0,False,NM,0.0,225
mp-867179,SrCdHg2,-0.360776323750005,0.008872362465274,0.0,False,NM,7e-07,225
mp-962076,SrCdSi,0.42236583333333305,0.7475825500000011,0.0,False,NM,0.1458883,216
mp-1517421,SrCeCrSnO6,-2.727758351499999,0.20641390087499,0.127699999999999,True,FM,4.0000002,216
mp-1516260,SrCeEuCrO6,-3.0321401315,0.257600461249999,0.0,True,FM,9.0,216
mp-1522354,SrCeEuNbO6,-3.265724151500001,0.163094568600014,0.0,True,FiM,5.9999996,216
mp-1518063,SrCeEuNiO6,-2.656479940499999,0.27597184687498905,0.0,True,FM,7.0000003,216
mp-1187193,SrCeHg2,-0.382977573750002,0.0201026475,0.0,True,FM,1.073947,225
mp-1523044,SrCePrCoO6,-2.880371544166667,0.19239853093749001,1.8113000000000001,False,NM,0.0,216
mp-23209,SrCl2,-2.7500931783333353,0.0,5.5675,False,NM,0.0,225
mp-1518707,SrCrBiSbO6,-2.072968464,0.20818423475000103,0.0,True,FM,3.301791,216
mp-1519512,SrCrInWO6,-2.254128255666665,0.16318859007143302,0.2952,True,FM,3.0000006,216
mp-631494,SrCrPd2,0.12326748000000001,0.5993197099999971,0.0,True,FM,4.5233356,216
mp-631355,SrCrRh2,0.32639712125000003,0.5176573762499991,0.0,True,FM,3.4344192,225
mp-1517668,SrCrSnBiO6,-2.159913142499999,0.17089072464583402,0.9519000000000001,True,FM,3.0000005,216
mp-1521763,SrCrSnSbO6,-2.175102164499999,0.18318395078409203,0.879699999999999,True,FM,3.0000006,216
mp-1517968,SrCrSnWO6,-2.2243093195,0.18057277878570901,0.0,True,FiM,2.0000006,216
mp-631277,SrCrW2,1.4597725158333321,1.4597725158333321,0.0,False,NM,0.005676599999999,225
mp-1187181,SrEu3,0.07030034124999601,0.07030034124999601,0.0,True,FM,23.5982437,225
mp-1520853,SrEuAlBiO6,-2.6386764195,0.219867235541665,0.0,True,FM,6.7448447,216
mp-1516811,SrEuBiSbO6,-2.3448441335,0.20360449300000202,0.15030000000000002,True,FM,7.0000001,216
mp-1521177,SrEuCoWO6,-2.487275003500001,0.148637544874983,0.0,True,FiM,9.5803098,216
mp-1521023,SrEuCrBiO6,-2.3485124165,0.254397296250017,0.0,True,FiM,3.4921098,216
mp-1518655,SrEuCrInO6,-2.427563387166667,0.261571300916682,0.0,True,FM,8.0000003,216
mp-1523312,SrEuCrSbO6,-2.6357729695,0.09077334128408701,0.0,True,FM,10.0000094,216
mp-1518792,SrEuCrSnO6,-2.607805677999999,0.16381372224999902,0.0,True,FM,9.0000005,216
mp-1517598,SrEuCuBiO6,-1.9915014515000011,0.21307037981249,0.0,True,FiM,6.3881394,216
mp-1518286,SrEuDyCoO6,-2.621137449666668,0.24132700767741602,0.0,True,FiM,5.0000003,216
mp-1520871,SrEuDyCrO6,-2.910770853666666,0.273934113968746,0.0,True,FM,8.0000002,216
mp-1517447,SrEuDyFeO6,-2.7172057156666662,0.25684031700000004,0.0,True,FM,9.9814978,216
mp-1517910,SrEuDyMnO6,-2.896691844459771,0.21550492824998402,0.0,True,FM,9.0017619,216
mp-1518315,SrEuDyNbO6,-3.377732147666667,0.087578487154734,0.310299999999999,True,FM,7.0000002,216
mp-1522826,SrEuDySbO6,-3.025509869666667,0.124087976050002,0.267399999999999,True,FM,7.0000002,216
mp-1521152,SrEuDyWO6,-2.983872457666667,0.207915813916654,0.0,True,FM,7.0028751,216
mp-1518745,SrEuFeBiO6,-2.215269892500001,0.203105402499996,0.0,True,FM,11.503241599999999,216
mp-1519899,SrEuFeSbO6,-2.4917160905,0.07941521100000501,0.0,True,FM,11.6433911,216
mp-1522302,SrEuFeSnO6,-2.429639649,0.17710564725000003,0.0,True,FM,11.0016423,216
mp-1517349,SrEuFeWO6,-2.5442833395,0.112598032999997,0.0,True,FiM,10.7762707,216
mp-1520538,SrEuGaBiO6,-2.344270700250001,0.224907587499996,0.0,True,FM,6.7256097,216
mp-1518060,SrEuGdSbO6,-2.978626051499999,0.12910811732500102,0.42060000000000003,True,AFM,1e-07,216
mp-1518457,SrEuHfCrO6,-3.219320347499999,0.13980219600000102,0.0,True,FM,9.0000005,216
mp-1521050,SrEuHfFeO6,-3.0283897865,0.16585865299999702,0.0,True,FM,11.0000007,216
mp-1521439,SrEuHfInO6,-3.001155709166667,0.26483673899999705,0.0,True,FM,6.0022488,216
mp-1518221,SrEuHfMnO6,-3.144042609293104,0.126912952843749,0.0,True,FM,10.0000011,216
mp-1519386,SrEuHfNbO6,-3.4135656565,0.067451462416675,0.0,True,FiM,6.3565443,216
mp-1517552,SrEuHfSbO6,-2.979932907500001,0.23236517701135903,0.0,True,FM,6.6007213,216
mp-1518253,SrEuHfSnO6,-3.17257457,0.07429508931249801,0.3763,True,FM,7.001247,216
mp-1519425,SrEuHfTiO6,-3.641549238833333,0.043894209999999004,0.1183,True,FM,7.0020681,216
mp-1519163,SrEuHfZrO6,-3.6628303195000003,0.06344758574999901,0.43060000000000004,True,FM,6.9999999,216
mp-1100769,SrEuHg2,-0.527108090000005,0.0035667625000000004,0.0,True,FM,7.3135038,225
mp-1100785,SrEuIn2,-0.41750726208333305,0.011125167187501001,0.0,True,FM,7.0485545,225
mp-1518471,SrEuInBiO6,-2.231814591166667,0.25830471249999004,0.0,True,FM,6.8245655,216
mp-1520042,SrEuInSbO6,-2.504636793166666,0.12267959150001301,0.0,True,FM,6.8919301,216
mp-1522043,SrEuInSnO6,-2.417278251666667,0.26121105324999905,0.0,True,FM,5.99974,216
mp-1519289,SrEuInWO6,-2.495919337166667,0.18926315399999702,0.0,True,FM,7.9999997,216
mp-1521845,SrEuMgBiO6,-2.41499012,0.191372356449989,0.0,True,FM,6.0003429,216