material_id,formula,formation_energy,ehull,band_gap,is_magnetic,magnetic_ordering,total_magnetization,spacegroup
mp-977553,Yb2PtAu,-1.198981084999999,0.041479094583323,0.0,False,NM,1.3e-06,225
mp-1187934,Yb2RhAu,-0.9802466525,0.066570798125006,0.0,False,NM,0.0,225
mp-864783,Yb2SbAu,-0.785525567499995,0.35212548812500405,0.0082,True,FM,1.2908665,225
mp-864789,Yb2SnHg,-0.5598039168749971,0.038425927500014,0.0,False,NM,1e-06,225
mp-864743,Yb2TlCd,-0.3857382025,0.0,0.0,False,NM,3.63e-05,225
mp-1187932,Yb2TlGa,-0.46482010500000104,0.023229548750002,0.0,False,NM,0.0,225
mp-1187917,Yb2TlHg,-0.47289060937500604,0.0007223025000010001,0.0,False,NM,1.25e-05,225
mp-1187965,Yb2TlIn,-0.44722349999999905,0.004830802500002,0.0,False,NM,1.2100000000000001e-05,225
mp-864741,Yb2TlPb,-0.38793488750000105,0.0,0.0,False,NM,0.0006344,225
mp-1187956,Yb2TlSn,-0.459387900000002,0.09323722208333801,0.0,False,NM,0.005179899999999,225
mp-1187933,Yb2TlZn,-0.382023288749998,0.015403321874998,0.0,False,NM,0.0010339,225
mp-1187928,Yb2ZnAg,-0.386462157500002,0.0,0.0,False,NM,3e-07,225
mp-977442,Yb2ZnGa,-0.5517561712500011,0.0,0.0,False,NM,4e-07,225
mp-1187944,Yb2ZnGe,-0.548016371250003,0.07544830333333101,0.0,False,NM,1e-07,225
mp-1187930,Yb2ZnHg,-0.48196505312500104,0.0,0.0,False,NM,1.2600000000000001e-05,225
mp-1187929,Yb2ZnIn,-0.47058939875000005,0.0,0.0,False,NM,8.8e-06,225
mp-1187950,Yb2ZnIr,-0.7941690787500021,0.0023525218750030004,0.0,False,NM,2e-06,225
mp-977424,Yb2ZnPb,-0.38132614124999903,0.0,0.0,False,NM,2e-07,225
mp-977423,Yb2ZnRh,-0.7183180087499991,0.012650899791665001,0.0,False,NM,2e-07,225
mp-1187958,Yb2ZnSn,-0.49354907875000303,0.11737856232143401,0.0,False,NM,2e-07,225
mp-1207642,Yb3(P3Pd10)2,-0.7651761766502431,0.0,0.0,False,NM,0.0,225
mp-1207621,Yb3(Si3Pd10)2,-0.842203147758619,0.0,0.0,False,NM,0.0,225
mp-1187947,Yb3Al,-0.094227358750003,0.118711610624998,0.0,False,NM,0.0001981,225
mp-1187945,Yb3Cd,-0.029785966250003,0.15945150000000202,0.0,False,NM,0.0226898,225
mp-1188063,Yb3Ce,0.09210680624999401,0.09210680624999401,0.0,True,FM,0.9955491,225
mp-1187957,Yb3Cr,0.184060788749995,0.184060788749995,0.0,True,FiM,2.9950196,225
mp-1232422,Yb3Hf,0.22559811624999002,0.22559811624999002,0.0,True,FM,3.4505751,225
mp-980052,Yb3In,-0.17743722374999701,0.087836222500001,0.0,True,FM,1.2842137,225
mp-980034,Yb3Mg,0.040962399999994,0.087424513749997,0.0,False,NM,5.099999999999999e-06,225
mp-979955,Yb3Mn,0.09850209262930601,0.157996082187498,0.0,True,FiM,3.6777279,225
mp-1187964,Yb3Mo,0.323027353749999,0.323027353749999,0.0,False,NM,0.011392399999999001,225
mp-1187982,Yb3Nd,0.083334331874993,0.083334331874993,0.0,False,NM,6.14e-05,225
mp-980006,Yb3Os,-0.070228391250005,0.10587137593749602,0.0,False,NM,1.8500000000000002e-05,225
mp-1187961,Yb3Pm,0.08640730687499501,0.08640730687499501,0.0,False,NM,5.3800000000000013e-05,225
mp-1187955,Yb3Pr,0.08552107333332501,0.08552107333332501,0.0,False,NM,3.399999999999998e-06,225
mp-980049,Yb3Re,0.156936513124996,0.156936513124996,0.0,False,NM,0.0838326,225
mp-1005850,Yb3U,0.33852751749999005,0.33852751749999005,0.0,True,FM,4.3270572,225
mp-979942,Yb3V,0.122646516249999,0.122646516249999,0.0,True,FM,3.9965489,225
mp-979939,Yb3W,0.442689776249991,0.442689776249991,0.0,True,FiM,2.580521,225
mp-979940,Yb3Zr,0.148657124999992,0.148657124999992,0.0,True,FM,3.4960281,225
mp-1187818,YbAg2Pb,-0.216399963749999,0.054360314166665,0.0,False,NM,8e-07,225
mp-1187820,YbAg2Sn,-0.326006256250003,0.06291377958333301,0.0,False,NM,4e-07,225
mp-1187821,YbAg3,-0.22081580749999502,0.048497833749998005,0.0,False,NM,6e-07,225
mp-1187938,YbAgAu2,-0.6674539099999991,0.004471510227268,0.0,False,NM,2e-07,225
mp-1187942,YbAgHg2,-0.346523201250001,0.0,0.0,False,NM,1e-07,225
mp-866177,YbAgPd2,-0.6966689650000001,0.041067780312495,0.0,False,NM,0.0,225
mp-1187937,YbAlAg2,-0.353864611249999,0.011556023749996001,0.0,False,NM,0.0,225
mp-1187927,YbAlHg2,-0.31248530749999703,0.077695210937505,0.0,False,NM,0.0,225
mp-1187931,YbAlZn2,-0.318200213750001,0.062791166874999,0.0,False,NM,0.0,225
mp-600,YbAs,-1.765161173750002,0.0,0.0,False,NM,0.0,225
mp-31142,YbBiAu,-0.49401870999999603,0.20603846133334902,0.0,False,NM,0.0,216
mp-30466,YbBiPd,-1.008552173333332,0.0,0.0,False,NM,0.0,216
mp-865736,YbBiPd2,-0.7594079274999991,0.11660828999998701,0.0,False,NM,0.0,225
mp-1018106,YbBiPt,-1.158377599999994,0.0,0.0,False,NM,0.0,216
mp-1187962,YbBiRh2,-0.6023458324999991,0.068424328437501,0.0,False,NM,0.0682855,225
mp-1187612,YbCd2In,-0.21137418874999603,0.12772438666667002,0.0,False,NM,0.0,225
mp-865366,YbCd3,-0.254332028749995,0.022813907500001,0.0,False,NM,0.0,225
mp-865739,YbCdAg2,-0.292216333750001,0.0,0.0,False,NM,1.2e-05,225
mp-865740,YbCdAu2,-0.7324307362499951,0.0,0.0,False,NM,2e-07,225
mp-12009,YbCdCu4,-0.27627158083333303,0.0,0.0,False,NM,0.0,216
mp-865742,YbCdHg2,-0.37879887500000103,0.0,0.0,False,NM,1e-07,225
mp-1077738,YbCdNi4,-0.35480254249999804,0.0,0.0,True,FiM,0.6726601,216
mp-865744,YbCdPd2,-0.7998905887499951,0.0,0.0,False,NM,0.0,225
mp-1187889,YbCe2In,-0.103879671249995,0.21362278250000302,0.0,True,FM,3.5980705,225
mp-1187657,YbCeAg2,-0.20501187874999902,0.067990930000004,0.0,True,FM,1.0082053,225
mp-1187656,YbCeAu2,-0.837001593750002,0.073591336249997,0.0,True,FM,1.0687639,225
mp-1187691,YbCeCd2,-0.26947819875,0.044102323750003,0.0,True,FM,1.1001982,225
mp-1187645,YbCeCu2,-0.146574008750004,0.08057753874999901,0.0,True,FM,0.8254627,225
mp-865755,YbCeHg2,-0.5074621300000001,0.013342297499995001,0.0,True,FM,1.0081584,225
mp-1187814,YbCeMg2,-0.027856558750002,0.028271899166664,0.0,True,FM,1.0006015,225
mp-1187622,YbCeRh2,-0.8262663562499981,0.12123030249999901,0.0,True,FM,0.7542165,225
mp-1077741,YbCu4Ag,-0.256479781666667,0.0,0.0,False,NM,0.0,216
mp-1077165,YbCu4Au,-0.38036852416666506,0.0,0.0,False,NM,0.0,216
mp-1077341,YbCu4Ni,-0.18098151249999903,0.057593218888898005,0.0,False,NM,0.0,216
mp-1077750,YbCu4Pd,-0.395687440833332,0.0,0.0,False,NM,1e-07,216
mp-1187677,YbCuPd2,-0.657829063749999,0.12883905024997902,0.0,False,NM,0.0,225
mp-1187613,YbDyCd2,-0.38266102,0.0,0.0,False,NM,4e-07,225
mp-980199,YbDyHg2,-0.5763946587499971,0.0,0.0,False,NM,1.2e-06,225
mp-980384,YbDyPd2,-0.9599065074999971,0.010677245,0.0,False,NM,1.899999999999999e-06,225
mp-1187563,YbDyPt2,-1.367746737499999,0.07057592687500801,0.0,False,NM,5e-07,225
mp-865751,YbDyRh2,-1.005741469999996,0.015123309999999002,0.0,False,NM,0.0,225
mp-1187609,YbDyZn2,-0.40109124499999904,0.0,0.0,False,NM,4.39e-05,225
mp-980064,YbErHg2,-0.56971016333334,0.0,0.0,False,NM,1.5e-06,225
mp-865753,YbErPd2,-0.9761988070833311,0.010458262499998,0.0,False,NM,1.1e-06,225
mp-980197,YbErPt2,-1.3883567120833291,0.059616610624999004,0.0,False,NM,7e-07,225
mp-865749,YbErRh2,-1.04012978208333,0.010917357500002,0.0,False,NM,0.0,225
mp-980062,YbErZn2,-0.40329427708333304,0.0,0.0,False,NM,4e-07,225
mp-1206702,YbEu2TaO6,-3.444488859483334,0.0,0.0,True,FM,13.9999995,225
mp-1187684,YbEuAg2,-0.25973569749999803,0.07930029000000201,0.0,True,FM,7.0556156,225
mp-1187660,YbEuCd2,-0.333056594999998,0.045582182500002004,0.0,True,FM,7.1903204,225
mp-1187785,YbEuGa2,-0.539144204999999,0.0028584812500010003,0.0,True,FM,7.1771953,225
mp-1187651,YbEuHg2,-0.5474276287499931,0.04566626249999901,0.0,True,FM,7.1051806,225
mp-977365,YbEuIn2,-0.541092037499996,0.025222572499998003,0.0,True,FM,7.2391059,225
mp-1187643,YbEuMg2,-0.026742384999998002,0.063598472656249,0.0,True,FM,7.6730236,225
mp-1187693,YbEuPd2,-0.7768620149999991,0.084390272499998,0.0,True,FM,7.0505828,225
mp-1187687,YbEuPt2,-1.1444012225,0.048374208593742,0.0,True,FM,6.9591370999999995,225
mp-1187641,YbEuTl2,-0.4355558775,0.0,0.0,True,FM,7.2672452,225
mp-1187594,YbF3,-4.150309668749999,0.37401012312500104,0.0,False,NM,0.0,225
mp-865752,YbGa2Ir,-0.6616088087499991,0.104146363095239,0.0,False,NM,9e-07,225
mp-865748,YbGaAu2,-0.706596196249996,0.013587555909076001,0.0,False,NM,2e-07,225
mp-865756,YbGaPd2,-0.8867221462499971,0.030556898828127003,0.0,False,NM,2e-07,225
mp-865757,YbGaRh2,-0.976825936250001,0.0,0.0,False,NM,1e-07,225
mp-1187833,YbGdAg2,-0.29813760125000105,0.010085509999996,0.0,True,FM,7.2202001,225
mp-865764,YbGdRh2,-0.91354922875,0.027417399999997,0.0,True,FM,7.0047726,225
mp-1187854,YbGdZn2,-0.364747598749999,0.0,0.0,True,FM,7.7395843,225
mp-634751,YbH2,-0.799731970833332,0.0,0.0014000000000000002,False,NM,6e-07,225
mp-634930,YbH3,-0.618097327812499,0.0,0.0,False,NM,0.0,225
mp-865785,YbHfIr2,-1.040250871250002,0.05960826500000101,0.0,False,NM,2.1e-06,225
mp-865759,YbHfRh2,-0.9795249562500031,0.018986018221163,0.0,False,NM,3.03e-05,225
mp-865766,YbHgPd2,-0.7445795431249991,0.021399761249988002,0.0,False,NM,0.0,225
mp-1187615,YbHoCd2,-0.38010401999999704,0.0,0.0,False,NM,2.4e-06,225
mp-1187616,YbHoHg2,-0.5737131362500061,0.0,0.0,False,NM,0.00041779999999900006,225
mp-1187646,YbHoPd2,-0.9682659549999961,0.025020435624998002,0.0,False,NM,1.2e-06,225
mp-1187571,YbHoPt2,-1.378000737499995,0.065198395624996,0.0,False,NM,2.1e-06,225
mp-865783,YbHoRh2,-1.022845397499995,0.012721342500000002,0.0,False,NM,0.0,225
mp-1187630,YbHoZn2,-0.40327710249999804,0.0,0.0,False,NM,1e-06,225
mp-865789,YbInAg2,-0.39330738125000003,0.0,0.0,False,NM,2e-07,225
mp-568537,YbInAu2,-0.7795896262500001,0.0,0.0,False,NM,1e-07,225
mp-865790,YbInHg2,-0.36540570249999804,0.025250980833327,0.0,False,NM,0.0,225
mp-1206307,YbInNi4,-0.408797477499999,0.0,0.0,False,NM,2e-07,216
mp-865771,YbInPd2,-0.9187076937499971,0.0,0.0,False,NM,0.0,225
mp-865774,YbInRh2,-0.9148761037500001,0.0,0.0,False,NM,0.0,225
mp-1215433,YbLuAl4,-0.5586292569444441,0.000409501666666,0.0,False,NM,4.9000000000000005e-05,216
mp-1187614,YbLuHg2,-0.5630647991666671,0.0,0.0,False,NM,2.4e-06,225
mp-1187666,YbLuIn2,-0.5172721329166661,0.0035986649999980003,0.0,False,NM,5.8100000000000016e-05,225
mp-981314,YbLuPd2,-0.999688297916666,0.012512092499999001,0.0,False,NM,4.05e-05,225
mp-981512,YbLuPt2,-1.414579977916659,0.047379683125001,0.0,False,NM,1.8900000000000002e-05,225
mp-865663,YbLuRh2,-1.086512902916663,0.010047469999999,0.0,False,NM,2e-07,225
mp-972174,YbLuTl2,-0.357262400416665,0.000978609999997,0.0,False,NM,0.0132588,225
mp-1187661,YbMg3,-0.044206837500000006,0.00439758125,0.0,False,NM,2.7e-06,225
mp-865661,YbMgCd2,-0.31472497000000005,0.0,0.0,False,NM,5e-07,225
mp-865814,YbMgHg2,-0.491688101249998,0.0,0.0,False,NM,2e-07,225
mp-972180,YbMgIn2,-0.32037228249999905,0.046158740833341004,0.0,False,NM,1e-06,225
mp-1187574,YbMgRh2,-0.833375154999998,0.0,0.0,False,NM,0.0,225
mp-865813,YbMgTl2,-0.217163815000006,0.0,0.0,False,NM,9e-07,225
mp-1215661,YbNb(PbO3)2,-2.46058168175,0.09422501099999801,0.0,False,NM,0.0,225
mp-865857,YbNbRu2,-0.47785903624999904,0.0,0.0,False,NM,0.0,225
mp-865426,YbNdAg2,-0.30850556312499905,0.015435849999999002,0.0,False,NM,1.1e-06,225
mp-1187627,YbNdAu2,-0.893820488125001,0.062499513124997005,0.0,False,NM,0.0,225
mp-971702,YbNdCd2,-0.36574908562499703,0.009851085000001,0.0,False,NM,0.001184,225
mp-865158,YbNdHg2,-0.5491578343750021,0.016622015000002002,0.0,False,NM,0.0,225
mp-1187617,YbNdMg2,-0.097768768124996,0.0,0.0,False,NM,9e-07,225
mp-1187618,YbNdPd2,-0.8619072056249981,0.067140253749999,0.0,False,NM,0.0,225
mp-1187620,YbNdPt2,-1.240688098124991,0.12374069000000501,0.0,False,NM,0.0,225
mp-865151,YbNdRh2,-0.8354989781249951,0.07364227875000001,0.0,False,NM,2e-07,225
mp-865843,YbNdZn2,-0.35587701312499903,0.0,0.0,False,NM,0.0007913,225
mp-570899,YbNi2Sn,-0.50672605375,0.0,0.0,False,NM,3e-07,225
mp-1024977,YbNi4Au,-0.40126384083333705,0.0,0.0,False,NM,4.999999999999999e-06,216
mp-1207519,YbNi4Sn,-0.38316727250000004,0.0007033438888900001,0.0,False,NM,1e-07,216
mp-568931,YbNiSb,-1.001248031666667,0.0,0.0,False,NM,0.0,216
mp-1187629,YbPaIr2,-0.857215428749995,0.22385926916665902,0.0,False,NM,0.0029833,225
mp-865841,YbPaPt2,-1.04743937125,0.18709373208333302,0.0,True,FM,0.3062958,225
mp-865836,YbPaRh2,-0.773924498749991,0.084025361666668,0.0,True,FM,0.5173201,225
mp-865828,YbPaRu2,-0.522111036249995,0.0,0.0,False,NM,0.0209122,225
mp-980054,YbPbAu2,-0.6021079262499991,0.07004724218747001,0.0,False,NM,0.0,225
mp-865815,YbPd2Au,-0.8270707137499961,0.08215635291664801,0.0,False,NM,0.0,225
mp-865816,YbPd2Pb,-0.7556500887499951,0.0,0.0,False,NM,4e-07,225
mp-865896,YbPmAg2,-0.322389368124998,0.0,0.0,False,NM,5e-07,225
mp-865894,YbPmAu2,-0.9152536356249991,0.0,0.0,False,NM,5e-07,225
mp-1187510,YbPmCd2,-0.37407553312499703,0.0,0.0,False,NM,0.000252,225
mp-1187538,YbPmCu2,-0.229210920625,0.0,0.0,False,NM,3e-07,225
mp-865911,YbPmHg2,-0.560352269375002,0.0,0.0,False,NM,5.099999999999999e-06,225
mp-865906,YbPmPd2,-0.8871433206250001,0.0,0.0,False,NM,1e-07,225
mp-865903,YbPmPt2,-1.273744768124999,0.0,0.0,False,NM,0.0,225
mp-865905,YbPmRh2,-0.876458638125001,0.0,0.0,False,NM,6e-07,225
mp-865920,YbPmZn2,-0.370082558124998,0.0,0.0,True,FM,0.175197599999999,225
mp-865947,YbPrAg2,-0.292062156666666,0.020584299999999,0.0,False,NM,7e-07,225
mp-980053,YbPrAu2,-0.8702825391666661,0.07292635062500301,0.0,False,NM,1.4e-06,225
mp-980044,YbPrCd2,-0.355002301666665,0.015058995000003001,0.0,False,NM,0.0041733,225
mp-865978,YbPrHg2,-0.535610627916668,0.025265917499993,0.0,False,NM,4.9000000000000005e-06,225
mp-981397,YbPrMg2,-0.09472888416666601,0.0011721700000000002,0.0,False,NM,7.2e-06,225
mp-981530,YbPrPd2,-0.8320596466666671,0.08018581999999601,0.0,False,NM,1.48e-05,225
mp-980069,YbPrRh2,-0.791502189166664,0.09659419625000201,0.0,False,NM,6.3e-06,225
mp-865997,YbPrZn2,-0.339402924166666,0.0,0.0,False,NM,0.000402499999999,225
mp-866027,YbRh2Pb,-0.661964873749994,0.0,0.0,False,NM,0.005209699999999,225
mp-1820,YbS,-2.156742438906249,0.0,2.2246,False,NM,1.1e-06,225
mp-1916,YbSb,-1.271971607500003,0.0,0.0,False,NM,1e-07,225
mp-10981,YbSbPd,-0.514398261666665,0.712288213333334,0.0,False,NM,0.0,216
mp-571363,YbSbPd,-1.226686474999998,0.0,0.0,False,NM,0.0,216
mp-865996,YbSbPd2,-0.907138981249996,0.11058248816964401,0.0,False,NM,0.0,225
mp-570014,YbSbPt,-1.378672905000002,0.0,0.0,False,NM,0.0,216
mp-1215458,YbScAl4,-0.5463187099999991,0.002999177499999,0.0,False,NM,4e-07,216
mp-865994,YbScRh2,-1.059875167499999,0.022140230000001003,0.0,False,NM,0.0,225
mp-1187520,YbSmAg2,-0.326730841249999,0.008770929999997,0.0,False,NM,2e-07,225
mp-1187504,YbSmAu2,-0.9230753337499991,0.048720355624999004,0.0,False,NM,8e-07,225
mp-1187522,YbSmCd2,-0.37405678874999904,0.0031613925000000005,0.0,False,NM,5.84e-05,225
mp-866020,YbSmHg2,-0.561462400000003,0.0,0.0,False,NM,1e-06,225
mp-980068,YbSmPd2,-0.898285141249999,0.050386526249997,0.0,False,NM,0.0,225
mp-979965,YbSmPt2,-1.288388681249998,0.10183202874999601,0.0,False,NM,0.0,225
mp-865993,YbSmRh2,-0.8987013487499981,0.036323334999998,0.0,False,NM,1e-07,225
mp-865991,YbSmZn2,-0.374345901249999,0.0,0.0,True,FM,0.1594089,225
mp-865995,YbSnAu2,-0.691223276249999,0.0,0.0,False,NM,4e-07,225
mp-4053,YbSnPd2,-0.9269083487499991,0.0,0.0,False,NM,1e-07,225
mp-865992,YbSnRh2,-0.905517036249996,0.0,0.0,False,NM,0.0001312,225
mp-1215690,YbTa(PbO3)2,-2.6011938704833373,0.064184671999996,0.0,False,NM,0.0,225
mp-865172,YbTaRu2,-0.5593638830833351,0.0,0.0,False,NM,3e-07,225
mp-1779,YbTe,-1.327878997500001,0.0,1.4678,False,NM,4e-07,225
mp-979987,YbThPt2,-1.221116231249993,0.17633592062500703,0.0,False,NM,5.22e-05,225
mp-865217,YbThRh2,-0.889803471249997,0.15946873125000102,0.0,False,NM,1e-07,225
mp-866002,YbTl2Cd,-0.110045168749998,0.127449430833351,0.0,False,NM,8.7e-06,225
mp-1206479,YbTlCu4,-0.216676132499998,0.0,0.0,False,NM,0.0,216
mp-972061,YbTlHg2,-0.23994626750000203,0.08071130937500401,0.0,False,NM,0.0,225
mp-865999,YbTlPd2,-0.7201789487499961,0.029935519583332,0.0,False,NM,7e-07,225
mp-972062,YbTmHg2,-0.570860657499999,0.0,0.0,False,NM,5e-07,225
mp-1187537,YbTmPd2,-0.9869358987500011,0.011086944999995001,0.0,False,NM,1e-07,225
mp-865415,YbTmPt2,-1.400555636249997,0.05523979562500601,0.0,False,NM,6e-07,225
mp-865422,YbTmRh2,-1.058858321250003,0.010026472499998001,0.0,False,NM,0.0,225
mp-1187507,YbTmZn2,-0.408357218750001,0.0,0.0,False,NM,8e-07,225
mp-1215441,YbYAl4,-0.5718520891666681,0.0035189833333340004,0.0,False,NM,0.0,216
mp-1187521,YbYCd2,-0.387133628749999,0.0009047375,0.0,False,NM,1.6e-06,225
mp-1187505,YbYHg2,-0.577585985000006,0.002217832499994,0.0,False,NM,4e-07,225
mp-972072,YbYPd2,-0.940683401250002,0.028226413749997,0.0,False,NM,0.0,225
mp-1187509,YbYPt2,-1.346394508750002,0.068778693124997,0.0,False,NM,0.0,225
mp-865429,YbYRh2,-0.973346843749999,0.017797455,0.0,False,NM,0.0,225
mp-1187506,YbYZn2,-0.397269011249999,0.0,0.0,False,NM,6e-07,225
mp-11577,YbZn,-0.06917301000000001,0.26693181249999703,0.0,False,NM,0.0003056,225
mp-865431,YbZnAu2,-0.698349319999998,0.00044778332719600005,0.0,False,NM,2e-07,225
mp-1187799,YbZnPd2,-0.8074242050000001,0.020115663611104003,0.0,False,NM,0.0,225
mp-1187803,YbZnRh2,-0.7909974875000001,0.0,0.0,False,NM,0.0,225
mp-1187806,YbZrIr2,-0.9947961674999981,0.07879540562500101,0.0,False,NM,6.910000000000001e-05,225
mp-865536,YbZrRh2,-0.9400299199999971,0.047764782499999006,0.0,False,NM,8e-07,225
mp-2646972,Zn,0.005205379999999001,0.005205379999999001,0.0,False,NM,3.1e-06,225
mp-31171,Zn2AgAu,-0.156005926249999,0.0,0.0,False,NM,1e-07,225
mp-3648,Zn2CuAu,-0.14467874999999703,0.0111480875,0.0,False,NM,1e-07,225
mp-980665,Zn2CuIr,-0.16376387249999702,0.0,0.0,False,NM,1e-07,225
mp-971827,Zn2CuPt,-0.3436161775,0.0038450894078930005,0.0,False,NM,4e-07,225
mp-1187800,Zn2CuRh,-0.2764296,0.0,0.0,False,NM,2e-06,225
mp-971836,Zn2NiIr,-0.21680480749999903,0.007683492500000001,0.0,False,NM,7.77e-05,225
mp-864654,Zn2NiRh,-0.34063196499999904,0.0,0.0,False,NM,0.000102299999999,225
mp-971891,Zn2PdAu,-0.388126027499999,0.0078853275,0.0,False,NM,1.6e-06,225
mp-981368,Zn2PdPt,-0.5616684475,0.009113717499999001,0.0,False,NM,5.099999999999999e-06,225
mp-864839,Zn2PdRh,-0.5148492624999991,0.0,0.0,False,NM,5e-07,225
mp-977427,Zn2PtRh,-0.512522459999997,0.0,0.0,False,NM,2.1e-06,225
mp-864844,Zn2RhAu,-0.336108980000002,0.0,0.0,False,NM,5.2000000000000004e-05,225
mp-10131,Zn3(Ni10B3)2,-0.28208503499999804,0.0,0.0,False,NM,2.7400000000000005e-05,225
mp-972048,Zn6Mo,-0.034509792857142,0.0,0.0,True,FM,0.2102818,225
mp-644500,Zn7Mo,-0.004442315625,0.025753753124998002,0.0,False,NM,0.0,225
mp-981247,Zn7Sb8Ru9,-0.19614346999999901,0.05368290763888801,0.0,False,NM,0.0007982,225
mp-1206378,Zn7Tc,-0.052043905625001004,0.082577545624998,0.0,False,NM,0.0,225
mp-1197200,Zn89(Cr2Au5)2,-0.06179773152912801,0.006883749902911001,0.019299999999999002,False,NM,0.560935,216
mp-34611,ZnAgAs,0.039595513611111,0.13668585561631902,0.0,False,NM,1.8400000000000003e-05,216
mp-1187926,ZnAgPd2,-0.304421807916665,0.042226297708335005,0.0,False,NM,0.0011121,225
mp-971701,ZnAs3,0.365552846874999,0.477295909062499,0.0,False,NM,0.005477699999999,225
mp-631528,ZnBSe2,0.895918119036458,1.539854480260417,0.0,False,NM,0.007242399999999,216
mp-1215427,ZnCdSe2,-0.151446978671874,0.743136633750001,0.0,False,NM,0.003473699999999,225
mp-19971,ZnCo2Ge,-0.034346866250000004,0.018500701761364,0.0,True,FM,1.0933518,225
mp-971744,ZnCo3,0.059096177386365,0.075706458522727,0.0,True,FM,4.2636866,225
mp-1215673,ZnCr2(SeS)2,-0.9414984092410711,0.014774313571424,0.0,True,FM,12.0000001,216
mp-971752,ZnCr3,0.23313614000000002,0.23313614000000002,0.0,True,FiM,3.5309471,225
mp-1215680,ZnCr4CdS8,-1.008302769999998,0.0071370275000010005,0.0,True,FM,12.0,216
mp-1215544,ZnCr4CdSe8,-0.840257702767856,0.005945833214279,0.529799999999999,True,FM,11.9996571,216
mp-1215697,ZnCr4CoO8,-2.2021758592857132,0.002648875357134,2.7994,True,FiM,0.0007635999999990001,216
mp-1215619,ZnCr4CuSe8,-0.804021726339285,0.004860162499999,0.0,True,FiM,11.0104838,216
mp-1215758,ZnCr4NiO8,-2.067653764285714,0.09234079107142701,0.0,True,FM,13.9999985,216
mp-864623,ZnCuAu2,-0.14657338749999801,0.0,0.0,False,NM,7e-07,225
mp-730273,ZnCuC8N5,1.596573434999999,1.663402269999999,0.0,True,FM,5.7958808,216
mp-631379,ZnCuMo,0.9674886666666661,1.027992019999999,0.0,True,FM,0.4567456,216
mp-971738,ZnCuNi2,-0.12022703749999901,0.007258230000000001,0.0,False,NM,1e-07,225