material_id,formula,formation_energy,ehull,band_gap,is_magnetic_x,magnetic_ordering,total_magnetization_x,spacegroup,heusler_type,is_magnetic_y,total_magnetization_y
mp-1186978,ScCdPt2,-0.807852176249999,0.018976793749999,0.0,False,NM,9.199999999999997e-06,225,full,False,9.199999999999997e-06
mp-867909,ScCdRh2,-0.6000478612499981,0.0,0.0,False,NM,1.5600000000000003e-05,225,full,False,1.5600000000000003e-05
mp-1208943,ScCo2Ge,-0.45871119,0.08188050875,0.0,True,FM,1.0059043,225,full,True,1.0059043
mp-3791,ScCo2Sn,-0.397145514999999,0.0,0.0,True,FiM,1.1536143,225,full,True,1.1536143
mp-961678,ScCoTe,-0.9258110738888892,0.008902987777777,0.867799999999999,False,NM,0.0,216,half,False,0.0
mp-973133,ScCuPd2,-0.630324856249998,0.033183781749999,0.0,False,NM,4e-07,225,full,False,4e-07
mp-973067,ScGa2Ru,-0.5247991625,0.004263329264704,0.0,False,NM,9.6e-06,225,full,False,9.6e-06
mp-867915,ScGaCo2,-0.349506956250001,0.021061685892858,0.0,False,NM,3e-07,225,full,False,3e-07
mp-11360,ScGaCu2,-0.394775053750001,0.0,0.0,False,NM,2.7e-06,225,full,False,2.7e-06
mp-867916,ScGaIr2,-0.8041942656249991,0.0,0.0,False,NM,6e-06,225,full,False,6e-06
mp-11400,ScGaNi2,-0.5701341281249991,0.0,0.0,False,NM,0.0001595,225,full,False,0.0001595
mp-30661,ScGaPd2,-0.8764897312500001,0.0,0.0,False,NM,2.7e-06,225,full,False,2.7e-06
mp-867923,ScGaPt2,-0.9555248081249992,0.021843295624996,0.0,False,NM,3.2e-06,225,full,False,3.2e-06
mp-867928,ScGaRh2,-0.9734605056249992,0.0,0.0,False,NM,0.0,225,full,False,0.0
mp-867156,ScGaRu2,-0.440619790625,0.0,0.0,False,NM,6.9e-06,225,full,False,6.9e-06
mp-961697,ScGeAu,-0.7613223916666431,0.02934935666666,0.2739,False,NM,0.0003594,216,half,False,0.0003594
mp-973066,ScGeRh2,-0.8401895274999981,0.008541167708333,0.0,True,FM,0.7820332,225,full,True,0.7820332
mp-631325,ScHgW2,0.9422049693750052,1.183118167500005,0.0,True,FM,0.5300408,225,full,True,0.5300408
mp-30347,ScInAg2,-0.334686023749998,0.0,0.0,False,NM,2.07e-05,225,full,False,2.07e-05
mp-30395,ScInAu2,-0.687778471249998,0.009886136500007,0.0,False,NM,4.17e-05,225,full,False,4.17e-05
mp-21067,ScInCu2,-0.348553476249998,0.010323330000009,0.0,False,NM,3.71e-05,225,full,False,3.71e-05
mp-867187,ScInIr2,-0.632838100416666,0.0,0.0,False,NM,3.299999999999999e-06,225,full,False,3.299999999999999e-06
mp-21301,ScInNi2,-0.442703425416665,0.0,0.0,False,NM,7.49e-05,225,full,False,7.49e-05
mp-31339,ScInPd2,-0.8743460287500001,0.0,0.0,False,NM,2.6e-06,225,full,False,2.6e-06
mp-20521,ScInPt2,-0.909457302916667,0.0,0.0,False,NM,4e-06,225,full,False,4e-06
mp-867842,ScInRh2,-0.8301913204166641,0.0,0.0,False,NM,1.58e-05,225,full,False,1.58e-05
mp-867850,ScMnRh2,-0.6200353282327581,0.0,0.0,True,FM,4.4052418,225,full,True,4.4052418
mp-867786,ScNbOs2,-0.431905126249994,0.0,0.0,False,NM,4.299999999999999e-06,225,full,False,4.299999999999999e-06
mp-867146,ScNbRu2,-0.5343486862499981,0.0,0.0,False,NM,0.0,225,full,False,0.0
mp-867795,ScNbTc2,-0.25523869875,0.0,0.0,False,NM,1e-07,225,full,False,1e-07
mp-4536,ScNi2Sn,-0.551673157499999,0.0,0.0,False,NM,3.9900000000000014e-05,225,full,False,3.9900000000000014e-05
mp-30459,ScNiBi,-0.626136915000001,0.0,0.1869,False,NM,0.0,216,half,False,0.0
mp-961675,ScNiP,-1.033952266547617,0.168802929166665,0.5921000000000001,False,NM,0.0011057,216,half,False,0.0011057
mp-3432,ScNiSb,-0.9635939116666632,0.0,0.2679,False,NM,0.0,216,half,False,0.0
mp-867151,ScPaOs2,-0.334768826249998,0.0,0.0,False,NM,4.83e-05,225,full,False,4.83e-05
mp-867804,ScPaRu2,-0.522963988749998,0.0,0.0,False,NM,0.0002698,225,full,False,0.0002698
mp-862612,ScPaTc2,-0.33587169375,0.0,0.0,False,NM,2.17e-05,225,full,False,2.17e-05
mp-1206369,ScPd2Pb,-0.680350783749997,0.0,0.0,False,NM,2.6600000000000003e-05,225,full,False,2.6600000000000003e-05
mp-862609,ScReTc2,-0.202172446875003,0.045900530963535,0.0,False,NM,9.8e-06,225,full,False,9.8e-06
mp-862629,ScRh2Pb,-0.5848243712499991,0.0,0.0,True,FM,0.820274,225,full,True,0.820274
mp-569779,ScSbPd,-1.1327451249999991,0.0,0.0155,False,NM,0.0,216,half,False,0.0
mp-7173,ScSbPt,-1.170172001666664,0.0,0.644099999999999,False,NM,0.0,216,half,False,0.0
mp-862635,ScSbRh2,-0.7848349362500001,0.026812590624998,0.0,False,NM,0.0094532,225,full,False,0.0094532
mp-862561,ScSbRu2,-0.6069024562499991,0.0,0.0,False,NM,0.0,225,full,False,0.0
mp-1100432,ScSiAg,0.075430832777776,0.6476954327777781,0.0,False,NM,0.0003079,216,half,False,0.0003079
mp-862556,ScSiPd2,-0.8674162964285691,0.075239393749999,0.0,False,NM,0.0009056,225,full,False,0.0009056
mp-972970,ScSiRh2,-0.929153363749999,0.024059236666665,0.0,False,NM,0.176859,225,full,False,0.176859
mp-2894,ScSnAu,-0.8532462150000031,0.0,0.122499999999999,False,NM,0.0,216,half,False,0.0
mp-4897,ScSnPd2,-0.8790974137499991,0.0,0.0,False,NM,4e-07,225,full,False,4e-07
mp-12603,ScSnPt,-0.414755379999999,0.587000330555557,0.0,False,NM,0.000932,216,half,False,0.000932
mp-30844,ScSnPt2,-0.890593649999998,0.052317237777777,0.0,False,NM,0.000670999999999,225,full,False,0.000670999999999
mp-862623,ScSnRh2,-0.8764835499999981,0.0,0.0,True,FM,0.6874678,225,full,True,0.6874678
mp-867748,ScSnRu2,-0.50737699,0.0,0.0,False,NM,2.5300000000000005e-05,225,full,False,2.5300000000000005e-05
mp-973089,ScTaFe2,-0.198350618083331,0.007106571916667,0.0,False,NM,0.0001336,225,full,False,0.0001336
mp-862699,ScTaOs2,-0.529961978083333,0.0,0.0,False,NM,0.0,225,full,False,0.0
mp-867897,ScTaRu2,-0.6225111480833331,0.0,0.0,False,NM,7e-07,225,full,False,7e-07
mp-867901,ScTaTc2,-0.323022823083331,0.037920050312502,0.0,False,NM,2e-07,225,full,False,2e-07
mp-862723,ScTc2Mo,-0.179537458749999,0.049238216875002,0.0,False,NM,0.0037679,225,full,False,0.0037679
mp-862725,ScTc2W,-0.230808796249998,0.0,0.0,False,NM,6.97e-05,225,full,False,6.97e-05
mp-1100405,ScTeRh,-1.21827575388889,0.0,0.3846,False,NM,0.0,216,half,False,0.0
mp-972957,ScTiRu2,-0.656583467083333,0.0,0.0,False,NM,8e-07,225,full,False,8e-07
mp-631406,ScTl2W,0.558372785694444,0.651517345277781,0.0,False,NM,0.0039616,225,full,False,0.0039616
mp-1100418,ScTlCd,0.075418215666668,0.321571901333332,0.0,False,NM,0.001281099999999,216,half,False,0.001281099999999
mp-867881,ScTlRh2,-0.5796567395833351,0.0,0.0,False,NM,0.0,225,full,False,0.0
mp-867858,ScUTc2,-0.16451214125,0.064263534375001,0.0,True,FM,1.1990793,225,full,True,1.1990793
mp-631302,ScVFe,0.678175858333332,0.8455510033333341,0.0,True,AFM,0.0043615,216,half,True,0.0043615
mp-867137,ScVRu2,-0.458314251249992,0.0,0.0,False,NM,6.099999999999997e-06,225,full,False,6.099999999999997e-06
mp-867109,ScZn2Ag,-0.281867579166665,0.004820286666665,0.0,False,NM,4e-07,225,full,False,4e-07
mp-972925,ScZn2Au,-0.460113258749999,0.019625049791667,0.0,False,NM,0.0010706,225,full,False,0.0010706
mp-1187006,ScZn2Cu,-0.264902471249999,0.019352509375,0.0,False,NM,1.2e-06,225,full,False,1.2e-06
mp-973142,ScZn2Pd,-0.5437562837499991,0.02733567953125,0.0,False,NM,0.0004282,225,full,False,0.0004282
mp-862704,ScZn2Pt,-0.668171681249999,0.050773856718752,0.0,False,NM,0.0001159,225,full,False,0.0001159
mp-1186992,ScZnAu2,-0.6099848012500001,0.015960599687499,0.0,False,NM,5.9e-06,225,full,False,5.9e-06
mp-867896,ScZnCu2,-0.255376168749999,0.0,0.0,False,NM,8.7e-06,225,full,False,8.7e-06
mp-972935,ScZnNi2,-0.419976883749999,0.00619706675,0.0,False,NM,0.000139799999999,225,full,False,0.000139799999999
mp-867135,ScZnPd2,-0.7885469112499941,0.0,0.0,False,NM,1.77e-05,225,full,False,1.77e-05
mp-867768,ScZnPt2,-0.921045203749994,0.0,0.0,False,NM,9.9e-06,225,full,False,9.9e-06
mp-867769,ScZnRh2,-0.7752742837499991,0.0,0.0,False,NM,5e-07,225,full,False,5e-07
mp-631331,Si2HgTe,0.6247457081249971,0.7198140125000021,0.0,False,NM,0.0006943,225,full,False,0.0006943
mp-972777,Si2OsRu,-0.507034938749999,0.016472589374998,0.0,False,NM,9e-07,225,full,False,9e-07
mp-978500,Si2TcOs,-0.410281387308238,0.053857597613635,0.0,False,NM,0.002964999999999,225,full,False,0.002964999999999
mp-631562,SiBAu,0.901577752361106,0.9211999394444452,0.0,False,NM,0.002124199999999,216,half,False,0.002124199999999
mp-631526,SiBPb,1.411171829027774,1.430794016111111,0.0,False,NM,0.0125382,216,half,False,0.0125382
mp-8003,SiCN,1.401718794480261,2.223260221958335,0.0,False,NM,0.0020579,216,half,False,0.0020579
mp-999187,SiHgP2,0.749274128824406,0.856067177500001,0.0,False,NM,0.0001897,225,full,False,0.0001897
mp-631368,SiSbOs2,0.8619082989583401,1.089647395208331,0.0,False,NM,0.0231234,216,full,False,0.0231234
mp-972810,SiTc2W,-0.311230156249997,0.0,0.0,False,NM,2e-07,225,full,False,2e-07
mp-631362,SiTe2Os,0.8935264540624991,1.140061805624999,0.0,False,NM,8.210000000000003e-05,225,full,False,8.210000000000003e-05
mp-631389,SiWCl2,1.046228950937493,1.947321919062499,0.0,False,NM,0.028976199999999,225,full,False,0.028976199999999
mp-978545,Sm2AgHg,-0.431318780624998,0.0,0.0,False,NM,1.22e-05,225,full,False,1.22e-05
mp-867868,Sm2AgIr,-0.5791798606306311,0.032401548164415,0.0,False,NM,0.0020932,225,full,False,0.0020932
mp-972530,Sm2AgRh,-0.489275250416666,0.024012994560808,0.0,False,NM,0.002127,225,full,False,0.002127
mp-867869,Sm2AgRu,-0.2817299925,0.0,0.0,False,NM,2.7300000000000003e-05,225,full,False,2.7300000000000003e-05
mp-972511,Sm2AgSn,-0.525067704166666,0.027690606497749,0.0,True,FM,0.6032131,225,full,True,0.6032131
mp-978519,Sm2AlCd,-0.333654479999999,0.019134239062499,0.0,False,NM,0.0004878,225,full,False,0.0004878
mp-972504,Sm2AlZn,-0.352529827499999,0.014670939062499,0.0,False,NM,2.5800000000000004e-05,225,full,False,2.5800000000000004e-05
mp-1187051,Sm2CdIn,-0.404938584166667,0.0,0.0,False,NM,6.360000000000001e-05,225,full,False,6.360000000000001e-05
mp-978555,Sm2CdIr,-0.4573164775,0.091918031666661,0.0,False,NM,0.014060399999999,225,full,False,0.014060399999999
mp-867887,Sm2CuIr,-0.5488407323611101,0.043416417638887,0.0,False,NM,0.00012,225,full,False,0.00012
mp-867895,Sm2CuRu,-0.241629518749999,0.01369250078125,0.0,False,NM,4.4900000000000014e-05,225,full,False,4.4900000000000014e-05
mp-1187000,Sm2GaAg,-0.482621383749997,0.026533597500002,0.0,True,FM,0.2582064,225,full,True,0.2582064
mp-1187015,Sm2HgPb,-0.612277124374998,0.042595157749999,0.0,False,NM,0.0001975,225,full,False,0.0001975
mp-978891,Sm2InAg,-0.465502733749999,0.0,0.0,True,FM,0.2768484,225,full,True,0.2768484
mp-1005693,Sm2InHg,-0.597539326875001,0.0,0.0,True,FM,0.8341807,225,full,True,0.8341807
mp-1187003,Sm2IrAu,-0.735747755000002,0.0,0.0,False,NM,2.7200000000000004e-05,225,full,False,2.7200000000000004e-05
mp-867142,Sm2IrPd,-0.846055597499997,0.0,0.0,False,NM,1.6e-06,225,full,False,1.6e-06
mp-867899,Sm2IrRh,-0.711750322499999,0.0,0.0,False,NM,0.0024971,225,full,False,0.0024971
mp-867859,Sm2IrRu,-0.495227183125003,0.088711507500001,0.0,False,NM,0.0124146,225,full,False,0.0124146
mp-867894,Sm2MgAl,-0.25623876875,0.0,0.0,False,NM,1e-07,225,full,False,1e-07
mp-1187002,Sm2MgCd,-0.187358421249999,0.00534897,0.0,False,NM,0.000608599999999,225,full,False,0.000608599999999
mp-1187179,Sm2MgIn,-0.320705070416666,0.0,0.0,False,NM,2.4e-05,225,full,False,2.4e-05
mp-978624,Sm2MgIr,-0.35350373625,0.133782391249996,0.0,False,NM,0.0196556,225,full,False,0.0196556
mp-972493,Sm2MgRu,-0.108875263749999,0.098650347309025,0.0,False,NM,6.950000000000002e-05,225,full,False,6.950000000000002e-05
mp-978625,Sm2MgTl,-0.247855549583334,0.004598202916666,0.0,False,NM,4.08e-05,225,full,False,4.08e-05
mp-867852,Sm2NiIr,-0.5172294150000001,0.059766638194456,0.0,False,NM,0.0109645,225,full,False,0.0109645
mp-1187018,Sm2NiRu,-0.251740889999999,0.052976802812499,0.0,False,NM,0.030090199999999,225,full,False,0.030090199999999
mp-972572,Sm2PdRh,-0.7711791925000011,0.021220643749996,0.0,False,NM,3e-07,225,full,False,3e-07
mp-867128,Sm2PdRu,-0.535509165859373,0.036652392812502,0.0,False,NM,9.9e-06,225,full,False,9.9e-06
mp-978824,Sm2RuAu,-0.484804959999999,0.053414555312499,0.0,False,NM,0.026360099999999,225,full,False,0.026360099999999
mp-972536,Sm2TlAg,-0.327108961250003,0.0,0.0,True,FM,0.254564,225,full,True,0.254564
mp-867191,Sm2TlCd,-0.347928643333333,0.0,0.0,True,FM,0.9003165,225,full,True,0.9003165
mp-978807,Sm2TlHg,-0.426772846458337,0.0,0.0,True,FM,0.8992243,225,full,True,0.8992243
mp-1187001,Sm2TlIn,-0.426267315,0.003761685000001,0.0,False,NM,2.6600000000000003e-05,225,full,False,2.6600000000000003e-05
mp-978815,Sm2TlZn,-0.337042155833334,0.0175761225,0.0,False,NM,0.0007161,225,full,False,0.0007161
mp-979057,Sm2ZnAg,-0.295225897916665,0.005592954999999,0.0,False,NM,7.93e-05,225,full,False,7.93e-05
mp-978808,Sm2ZnGa,-0.464249656875001,0.002710773749997,0.0,False,NM,7.010000000000001e-05,225,full,False,7.010000000000001e-05
mp-978973,Sm2ZnHg,-0.380444883125003,0.0,0.0,True,FM,0.639128399999999,225,full,True,0.639128399999999
mp-978950,Sm2ZnIn,-0.395506921666667,0.009622552499997,0.0,False,NM,0.0002126,225,full,False,0.0002126
mp-867182,Sm2ZnIr,-0.536793945,0.042108379583328,0.0,False,NM,0.0158767,225,full,False,0.0158767
mp-867921,Sm2ZnRu,-0.27712429,0.023532666249997,0.0,False,NM,0.0001148,225,full,False,0.0001148
mp-978516,SmAg2Hg,-0.303810620115587,0.04029614631295,0.0,False,NM,0.0026037,225,full,False,0.0026037
mp-862735,SmAg2Sn,-0.387455830833332,0.047325034471727,0.0,False,NM,0.002253,225,full,False,0.002253
mp-867254,SmAgAu2,-0.583560251666669,0.0,0.0,False,NM,1.18e-05,225,full,False,1.18e-05
mp-867218,SmAgHg2,-0.414758697499998,0.0,0.0,False,NM,4e-07,225,full,False,4e-07
mp-862749,SmAlAg2,-0.330054905,0.039328794123047,0.0,False,NM,0.0,225,full,False,0.0
mp-972657,SmBiAu2,-0.60367778625,0.038711723918923,0.0,False,NM,0.00014,225,full,False,0.00014
mp-1207190,SmBiPd,-1.060600278333334,0.0,0.0,False,NM,0.0,216,half,False,0.0
mp-862752,SmBiPd2,-0.7848927574999891,0.079942282916668,0.0,False,NM,0.000726,225,full,False,0.000726
mp-867853,SmCdAg2,-0.274145252083332,0.0,0.0,False,NM,1.22e-05,225,full,False,1.22e-05
mp-867882,SmCdAu2,-0.645947641249996,0.0,0.0,False,NM,3.299999999999999e-06,225,full,False,3.299999999999999e-06
mp-867157,SmCdHg2,-0.389039195000002,0.0,0.0,False,NM,5e-07,225,full,False,5e-07
mp-978517,SmCdPd2,-0.6678116687499991,0.006422534722221,0.0,False,NM,3e-06,225,full,False,3e-06
mp-978557,SmDyHg2,-0.572579385000004,0.0,0.0,False,NM,0.000106599999999,225,full,False,0.000106599999999
mp-978796,SmDyIn2,-0.606047383749999,0.002973247499998,0.0,False,NM,1.83e-05,225,full,False,1.83e-05
mp-972639,SmDyIr2,-0.7344183241666651,0.033070873410711,0.0,False,NM,4.39e-05,225,full,False,4.39e-05
mp-867159,SmDyMg2,-0.072119819166663,0.0,0.0,False,NM,0.0002948,225,full,False,0.0002948
mp-972650,SmDyRh2,-0.7895103966666661,0.013951467499998,0.0,False,NM,1.5000000000000002e-05,225,full,False,1.5000000000000002e-05
mp-978520,SmDyRu2,-0.237139316666665,0.068876933093749,0.0,False,NM,0.0002786,225,full,False,0.0002786
mp-978527,SmDyTl2,-0.351101210833339,0.0,0.0,False,NM,3.24e-05,225,full,False,3.24e-05
mp-972640,SmDyZn2,-0.331587159166664,0.003719167499999,0.0,True,FM,0.710514099999999,225,full,True,0.710514099999999
mp-972635,SmErHg2,-0.563145354583333,0.0,0.0,False,NM,9.59e-05,225,full,False,9.59e-05
mp-978542,SmErIn2,-0.5847715733333311,0.004122224999999,0.0,False,NM,1.8100000000000003e-05,225,full,False,1.8100000000000003e-05
mp-1187013,SmErIr2,-0.763159056249999,0.041877348249998,0.0,False,NM,1.03e-05,225,full,False,1.03e-05
mp-978513,SmErMg2,-0.069512721249998,0.0,0.0,False,NM,0.0001619,225,full,False,0.0001619
mp-978558,SmErRh2,-0.816731158749999,0.020793564999998,0.0,False,NM,1.4e-06,225,full,False,1.4e-06
mp-972633,SmErRu2,-0.268383636249999,0.063807579124998,0.0,False,NM,0.000557099999999,225,full,False,0.000557099999999
mp-978543,SmErTl2,-0.338921110416669,0.0023725725,0.0,False,NM,3.3100000000000005e-05,225,full,False,3.3100000000000005e-05
mp-972630,SmErZn2,-0.335605633749998,0.006383089999999,0.0,True,FM,0.441044899999999,225,full,True,0.441044899999999
mp-1187040,SmEuHg2,-0.492861021250004,0.0,0.0,True,FM,7.062319,225,full,True,7.062319
mp-1187014,SmEuRh2,-0.5243088425000001,0.047455502708336,0.0,True,FM,6.60488,225,full,True,6.60488
mp-1187071,SmEuZn2,-0.278297847500001,0.0154085175,0.0,True,FM,7.1705576,225,full,True,7.1705576
mp-972626,SmGaAu2,-0.634731245624999,0.027100518000003,0.0,False,NM,4.4e-06,225,full,False,4.4e-06
mp-1187008,SmGaRh2,-0.701234175625,0.002894242499999,0.0,False,NM,0.000137499999999,225,full,False,0.000137499999999
mp-1187078,SmGdAg2,-0.274063112499998,0.001099814999999,0.0,True,FM,7.4326754,225,full,True,7.4326754
mp-1187075,SmGdIn2,0.670643889999997,1.266405764999998,0.0,True,FM,1.3493038,225,full,True,1.3493038
mp-1187041,SmGdZn2,-0.344378553749997,0.00300215,0.0,True,FM,8.2019176,225,full,True,8.2019176
mp-972623,SmHgAu2,-0.589171169374998,0.0,0.0,False,NM,1.2900000000000002e-05,225,full,False,1.2900000000000002e-05
mp-978536,SmHoHg2,-0.5692628550000051,0.0,0.0,False,NM,0.000127499999999,225,full,False,0.000127499999999
mp-978563,SmHoIn2,-0.457251260833332,0.0,0.0,False,NM,1.3200000000000002e-05,225,full,False,1.3200000000000002e-05
mp-972641,SmHoIr2,-0.7466430524999981,0.042042715249998,0.0,False,NM,6.410000000000001e-05,225,full,False,6.410000000000001e-05
mp-867130,SmHoMg2,-0.068354989999998,0.0,0.0,False,NM,1.4e-06,225,full,False,1.4e-06
mp-972660,SmHoRh2,-0.8009072850000001,0.016985599999998,0.0,False,NM,0.0001216,225,full,False,0.0001216
mp-972649,SmHoRu2,-0.250387179999999,0.066388655406248,0.0,False,NM,1.899999999999999e-06,225,full,False,1.899999999999999e-06
mp-972653,SmHoTl2,-0.342982264166669,0.0,0.0,False,NM,0.0007182,225,full,False,0.0007182
mp-978537,SmHoZn2,-0.331284472499999,0.005041754999997,0.0,True,FM,0.574661499999999,225,full,True,0.574661499999999
mp-568719,SmInAg2,-0.422714734999999,0.0,0.0,False,NM,5e-07,225,full,False,5e-07
mp-568596,SmInAu2,-0.694418602916669,0.0,0.0,False,NM,5.2e-06,225,full,False,5.2e-06
mp-21475,SmInCu2,-0.352032584999999,0.028187010277793,0.0,False,NM,4e-07,225,full,False,4e-07
mp-867978,SmInRh2,-0.6556337254166681,0.0,0.0,False,NM,0.0,225,full,False,0.0
mp-978805,SmLuHg2,-0.5538891354166681,0.0,0.0,False,NM,2.499999999999999e-06,225,full,False,2.499999999999999e-06
mp-978547,SmLuIn2,-0.558235319166666,0.020365303999991,0.0,False,NM,5.6e-05,225,full,False,5.6e-05
mp-972601,SmLuMg2,-0.059650247916666,0.002833552083333,0.0,False,NM,5.85e-05,225,full,False,5.85e-05
mp-978505,SmLuRu2,-0.302149172916666,0.066499970749998,0.0,False,NM,0.0007009,225,full,False,0.0007009
mp-978544,SmLuTl2,-0.311957434583339,0.00428044525,0.0,False,NM,0.0002941,225,full,False,0.0002941
mp-978549,SmLuZn2,-0.334954015416665,0.010332195,0.0,False,NM,9.26e-05,225,full,False,9.26e-05
mp-11235,SmMg2Ag,-0.091075006666666,0.10093057111111,0.0,False,NM,4e-06,225,full,False,4e-06
mp-978528,SmMg2Sc,-0.047935362499999,0.015200755,0.0,False,NM,0.000165,225,full,False,0.000165
mp-867862,SmMgAg2,-0.290403805833331,0.0,0.0,False,NM,1e-07,225,full,False,1e-07
mp-867867,SmMgAu2,-0.746028767499999,0.0,0.0,False,NM,7.299999999999999e-06,225,full,False,7.299999999999999e-06
mp-867131,SmMgCd2,-0.298405172499998,0.0,0.0,False,NM,2.6e-06,225,full,False,2.6e-06
mp-867181,SmMgHg2,-0.459635663750002,0.0,0.0,False,NM,2.4e-06,225,full,False,2.4e-06
mp-867240,SmMgRh2,-0.6096202499999991,0.0,0.0,False,NM,0.0,225,full,False,0.0
mp-867871,SmMgZn2,-0.343209364999999,0.0,0.0,False,NM,2.1e-06,225,full,False,2.1e-06
mp-1206682,SmNiBi,-0.667981598333331,0.0,0.249299999999999,False,NM,0.0,216,half,False,0.0
mp-37381,SmOF,-4.145513748333334,0.055045295000002,5.508699999999999,False,NM,2.4e-05,216,half,False,2.4e-05
mp-867985,SmPbAu2,-0.610085793749997,0.0,0.0,False,NM,2.299999999999998e-06,225,full,False,2.299999999999998e-06
mp-1187039,SmPd2Pb,-0.7241940437393241,0.024027517500002,0.0,False,NM,1.8100000000000003e-05,225,full,False,1.8100000000000003e-05
mp-1207188,SmSbPt,-0.6470370750000001,0.4077880895,0.0,False,NM,0.0001935,216,half,False,0.0001935
mp-1218968,SmSbPt,-0.388480001666666,0.666345162833334,0.0,False,NM,9.17e-05,216,half,False,0.0001935
mp-13305,SmSnAu,-0.855774013333331,0.0,0.0655,False,NM,0.0,216,half,False,0.0
mp-972526,SmSnAu2,-0.6988432050000021,0.0,0.0,False,NM,3e-07,225,full,False,3e-07