material_id,formula,formation_energy,ehull,band_gap,is_magnetic,magnetic_ordering,total_magnetization,spacegroup
mp-1519546,NaEuSnSbO6,-2.24881504813793,0.13596528296875202,0.0,True,FM,6.8424552,216
mp-1521395,NaEuTiBiO6,-2.4542643469712653,0.22447947912500701,0.0,True,FM,6.7109448,216
mp-1521301,NaEuTiSnO6,-2.693560347471265,0.16580095642498902,0.0,True,FM,5.9999918999999995,216
mp-866047,NaEuTl2,-0.35790654124999505,0.0,0.0,True,FM,7.0931387,225
mp-1523338,NaEuYSbO6,-2.642561954637932,0.24290551975000502,0.0,True,FM,6.0003817,216
mp-1518401,NaEuYWO6,-2.863498008637931,0.08935632797916901,0.29959999999999903,True,FM,7.0,216
mp-1520576,NaEuZr2O6,-3.206800924637932,0.23048153549999703,0.0,True,FM,5.9988178,225
mp-1523171,NaEuZrSbO6,-2.8000699686379313,0.092555629062502,0.0907,True,FM,7.0000002,216
mp-1520916,NaEuZrSnO6,-2.7262304791379313,0.21519308962499803,0.0,True,FM,6.0004504,216
mp-1517534,NaEuZrTiO6,-3.195847522971264,0.174377581849975,0.0,True,FM,6.000604,216
mp-1516967,NaEuZrWO6,-2.8349462716379312,0.098608696451094,0.0,True,FM,8.0000001,216
mp-682,NaF,-2.960572454999999,0.0,6.204,False,NM,0.0,225
mp-1105542,NaFeH8(NF3)2,-1.613370578409961,0.028638492314806002,4.2486999999999995,True,FM,5.0001208,225
mp-865095,NaGaH8(NF3)2,-1.6975678321599612,0.007816840555554,5.8587,False,NM,2.85e-05,225
mp-1520861,NaGdHf2O6,-3.473625989137931,0.168125051999993,0.7399999999999991,True,FM,7.0000003,225
mp-1186166,NaGdHg2,-0.372562254375004,0.030951124375000003,0.0,True,FM,7.270517,225
mp-1186168,NaGdTl2,-0.303377965000002,0.001272524999997,0.0,True,FM,7.114117,225
mp-23870,NaH,-0.292902834375,0.0,3.7666,False,NM,0.0,225
mp-1521471,NaHfCuWO6,-2.347311471137931,0.18007309100000402,0.8338999999999991,False,NM,0.0,216
mp-1519487,NaHfNbSnO6,-2.826043672637931,0.128251502749996,2.475799999999999,False,NM,0.0,216
mp-1519177,NaHfSnWO6,-2.4581490526379293,0.15542743902174402,0.0,True,FM,0.9999998,216
mp-1186142,NaHg3,-0.19731228562500203,0.015430393750001001,0.0,False,NM,1.6000000000000003e-05,225
mp-865097,NaHgPd2,-0.169706213469829,0.0,0.0,False,NM,3e-07,225
mp-1186145,NaHo3,0.315079743362069,0.315079743362069,0.0,False,NM,0.0011438,225
mp-865096,NaHoTl2,-0.30849006374999904,0.0,0.0,False,NM,5.6e-06,225
mp-23268,NaI,-1.450042413189654,0.0,3.568699999999999,False,NM,0.0,225
mp-1205660,NaIn(NF3)2,-0.669887477804597,1.167095386333332,0.0,True,FiM,4.0026129,225
mp-1520101,NaIn(WO3)2,-1.8426221508045981,0.195420723786761,0.0,True,FM,2.0000121,225
mp-976326,NaInAg2,-0.08625744,0.046456289930553,0.0,False,NM,3.7300000000000005e-05,225
mp-643394,NaInH8(NF3)2,-1.654941714335887,0.027871336111108,5.0081,False,NM,0.0,225
mp-865100,NaInHg2,-0.21082085125000202,0.0,0.0,False,NM,4e-07,225
mp-1186140,NaInPd2,-0.39258636842363903,0.029242815237068003,0.0,False,NM,0.0007139,225
mp-1520890,NaInSnWO6,-1.9142296533045982,0.146479715494016,2.7817,False,NM,0.0,216
mp-631317,NaIrPb,0.8110907806249941,0.9910580839583141,0.0,False,NM,0.00048000000000000007,216
mp-1220759,NaLa(RuO3)2,-2.007820645637932,0.12717921368749602,0.0,True,FM,3.6084522,225
mp-1521749,NaLa(SnO3)2,-2.406475525637931,0.18907016612499902,0.0,False,NM,0.0003697,225
mp-865098,NaLaAu2,-0.619128131594826,0.0,0.0,False,NM,6e-07,225
mp-1523368,NaLaCeNiO6,-2.477306206637929,0.20517362283333201,1.426599999999999,False,NM,0.0,216
mp-1518772,NaLaDyFeO6,-2.517685314804597,0.18013060522499902,0.3405,True,FiM,3.0000008,216
mp-1517903,NaLaDyMnO6,-2.6634345185977013,0.24755150926665903,0.0,True,FiM,1.9999997,216
mp-1517878,NaLaEuWO6,-2.77306310913793,0.188866068749993,0.6625000000000001,True,FM,6.9999999,216
mp-1517067,NaLaGdSbO6,-2.806181082637931,0.19586551816666803,2.2363,True,FM,6.9999998,216
mp-1518369,NaLaHf2O6,-3.59259004263793,0.054899784749993005,2.574799999999999,False,NM,0.0,225
mp-1517281,NaLaHfNbO6,-3.287018346637931,0.151982040000001,0.0,False,NM,0.0029676,216
mp-1521559,NaLaHfSnO6,-3.021612577137931,0.142630854374994,2.6241,False,NM,0.0,216
mp-1516496,NaLaHfTiO6,-3.495079097971265,0.092964898599978,2.359299999999999,False,NM,0.0,216
mp-1518151,NaLaHfZrO6,-3.4999847116379312,0.15511664025000002,2.4644,False,NM,0.0,216
mp-865099,NaLaHg2,-0.46799341250000703,0.0,0.0,False,NM,0.00037969999999900005,225
mp-1522634,NaLaInSbO6,-2.341754525304599,0.176193208499999,2.471,False,NM,0.0,216
mp-1517122,NaLaMnWO6,-2.551532033431033,0.1311393405,1.018799999999999,True,FM,5.0000006,216
mp-1520737,NaLaNb2O6,-3.026661746637931,0.117448614500004,0.0,False,NM,9.56e-05,225
mp-1519810,NaLaNbInO6,-2.741544098304596,0.18493077100000302,2.6066000000000003,False,NM,0.0,216
mp-865102,NaLaTl2,-0.295952238261494,0.001610881030894,0.0,False,NM,0.0008409,225
mp-1519706,NaLaVSbO6,-2.496047611637931,0.19121966092307202,0.0,True,FM,2.0000001,216
mp-1522096,NaLaVWO6,-2.629427775637931,0.108316568791662,0.41480000000000006,True,FM,3.0000003,216
mp-1518530,NaLaYSbO6,-2.841724432637931,0.17084912666666602,2.468999999999999,False,NM,0.0,216
mp-1518296,NaLaZr2O6,-3.407500102637931,0.17453771550000102,2.3563,False,NM,0.0,225
mp-1520308,NaLaZrFeO6,-2.721391759637932,0.14789183725000002,0.0,True,FM,4.0000008,216
mp-1520149,NaLaZrNbO6,-3.209760540637931,0.156176312249999,0.0,False,NM,0.000824,216
mp-1521181,NaLaZrSnO6,-2.932350431137931,0.164432240624997,2.633099999999999,False,NM,0.0,216
mp-1521929,NaLaZrTiO6,-3.404611897971264,0.11382829723437701,2.2686,False,NM,0.0,216
mp-1521458,NaLaZrVO6,-3.064359477637931,0.16851787675000302,0.0,True,FM,0.999999899999999,216
mp-1111553,NaLi2AlF6,-3.227846432611113,0.241006249999998,5.8337,False,NM,0.0001379,225
mp-1111350,NaLi2AsF6,-2.42848944608333,0.33095088725000105,3.6191999999999993,False,NM,3.399999999999998e-06,225
mp-865101,NaLi2Bi,-0.602806837083335,0.0,0.6303000000000001,False,NM,0.0,225
mp-1111550,NaLi2CoF6,-2.501523124804598,0.2376375155,3.085,False,NM,0.0001043,225
mp-1111349,NaLi2CrF6,-2.862068752804597,0.264188384916671,4.2989999999999995,True,FM,2.9999324,225
mp-1111348,NaLi2FeF6,-2.6902617468045973,0.274478744861114,4.1704,True,FM,5.0000752,225
mp-1111142,NaLi2GaF6,-2.832968978554597,0.24342875813333603,5.3441,False,NM,4.1500000000000006e-05,225
mp-1111346,NaLi2IrF6,-2.258890115941661,0.26741716659999903,1.8335,False,NM,9.210000000000003e-05,225
mp-1111191,NaLi2MnF6,-2.682731754597701,0.32637167699999703,0.0,True,FM,3.9998793,225
mp-1111098,NaLi2MoF6,-2.6319066505833293,0.280000603499999,2.4654,True,FM,3.000001,225
mp-10525,NaLi2N,-0.052535050571119006,0.28768393328304603,2.134699999999999,False,NM,0.000144,225
mp-1111343,NaLi2NbF6,-2.671905884783334,0.417378985433332,0.0,True,FM,1.974361099999999,225
mp-975997,NaLi2Pb,-0.24169402451149302,0.020113429716666003,0.0,False,NM,0.0056358,225
mp-1111095,NaLi2RhF6,-2.364253213804597,0.27190947000000004,1.9166,False,NM,4.77e-05,225
mp-1111341,NaLi2RuF6,-2.34505622395833,0.306373017625001,0.0,True,FM,1.0299958,225
mp-5077,NaLi2Sb,-0.7055747683333331,0.0,0.6796000000000001,False,NM,0.0,225
mp-1186135,NaLi2Sn,-0.28807903076149405,0.024865563538793004,0.0,False,NM,0.006685099999999,225
mp-1111340,NaLi2TaF6,-2.638083053639998,0.5316149506999961,0.0,True,FM,1.5861732,225
mp-1111096,NaLi2TiF6,-3.04235333113793,0.29343215858333005,0.0,True,FM,0.9811690999999991,225
mp-1111338,NaLi2VF6,-2.825933653804598,0.36485711599999304,0.0,True,FM,1.999953699999999,225
mp-1517519,NaLiCeWO6,-2.594952043471264,0.18175200375001202,1.8641,False,NM,0.0,216
mp-1519434,NaLiNbBiO6,-2.047813343471264,0.192247505875001,0.48560000000000003,False,NM,0.0,216
mp-961703,NaLiPt,0.19207614559387,0.6286753444827581,0.5526,False,NM,1.6e-06,216
mp-1517270,NaLiTbWO6,-2.418913177137931,0.20374201387221702,0.0,True,FM,0.999999899999999,216
mp-962066,NaLiTe,-0.7993767837931031,0.329873915,2.1547,False,NM,0.00045569999999900006,216
mp-1516357,NaLiZrWO6,-2.644630696471264,0.098005818250012,2.2652,False,NM,0.0,216
mp-1186143,NaLu3,0.36622519750000704,0.36622519750000704,0.0,False,NM,0.0005149,225
mp-2232639,NaMg(Cu3O4)2,-0.901233012898706,0.40843139843750004,0.0,False,NM,0.0023306,225
mp-1186141,NaMgHg2,-0.20384908284483103,0.012860590374998001,0.0,False,NM,1.5e-06,225
mp-961699,NaMgP,0.133527832992611,0.63418976,0.0,False,NM,0.0007287,216
mp-865107,NaMgPb2,-0.11102062409482501,0.0,0.0,False,NM,1.4e-06,225
mp-865110,NaMgTl2,-0.083778493261496,0.0,0.0,False,NM,9e-07,225
mp-1520467,NaMnBiWO6,-1.8770781539310342,0.185106142999999,0.0,True,FM,4.9772613,216
mp-41605,NaMnCr(CN)6,-0.015080822620690002,0.306132797000001,0.0,True,FM,3.8757687,216
mp-977181,NaMo3,0.930702120862068,0.930702120862068,0.0,True,FiM,0.1636165,225
mp-504778,NaMoF6,-2.80708427125,0.0,0.0,True,FM,1.0,225
mp-1009221,NaN,1.057821796875001,1.169130011250001,0.0,True,FM,1.9990709,225
mp-977182,NaNb3,0.740278413362069,0.740278413362069,0.0,False,NM,0.009441,225
mp-1521298,NaNbInWO6,-2.203251612804597,0.17592658487499802,0.0,True,FM,0.9377839,216
mp-1519843,NaNbSnWO6,-2.183934782637931,0.17622118025000102,0.0,True,FM,2.0,216
mp-865113,NaNdAu2,-0.587236702219827,0.012755826031251001,0.0,False,NM,4.1e-06,225
mp-1516393,NaNdEuWO6,-2.770024659387931,0.16249732824999402,0.46190000000000003,True,FM,7.0000001,216
mp-1522943,NaNdEuWO6,-2.681861220387931,0.25066076724999503,0.3437,True,FM,7.0000002,216
mp-1516757,NaNdHf2O6,-3.52020239388793,0.09353672374999501,2.8337,False,NM,0.0,225
mp-1522126,NaNdHfNbO6,-3.207034072887931,0.19821560399999602,0.0,False,NM,0.0009262,216
mp-1518358,NaNdHfSnO6,-2.951744668387931,0.183931296499995,3.3638,False,NM,0.0007134999999990001,216
mp-1516737,NaNdHfTiO6,-3.429838310221265,0.12543012046874902,2.2438000000000002,False,NM,0.0,216
mp-865115,NaNdHg2,-0.442352603125002,0.0,0.0,False,NM,5.1900000000000015e-05,225
mp-1517896,NaNdMnWO6,-2.478732321681033,0.17844413049999902,1.043,True,FM,5.0000007,216
mp-1519126,NaNdNb2O6,-2.941559484887931,0.178150340500002,0.0,False,NM,0.010231299999999001,225
mp-865122,NaNdTl2,-0.25928041138649605,0.008535005197560001,0.0,False,NM,1.1e-06,225
mp-631344,NaOsSe2,0.8201776871874951,1.453631667343749,0.0,True,FM,0.1324585,216
mp-10474,NaPF6,-2.9074881047470242,0.0,7.0251,False,NM,0.0,225
mp-1094092,NaPH6,-0.045974979590774005,0.07899080031249901,1.0735000000000001,False,NM,2.61e-05,225
mp-1080753,NaPb2IO6,-1.33546270663793,0.040496489000019,2.6086,False,NM,1.3300000000000001e-05,225
mp-981933,NaPd2Pb,-0.255437997499999,0.027146794374999002,0.0,False,NM,9e-07,225
mp-1186174,NaPm2Sn,-0.399462751249998,0.020736526708329,0.0,False,NM,0.00023429999999900002,225
mp-862942,NaPmAu2,-0.664422989374998,0.0,0.0,False,NM,1e-07,225
mp-862943,NaPmHg2,-0.43969810562499806,0.0,0.0,False,NM,3.61e-05,225
mp-862945,NaPmTe2,-1.313305866875001,0.0,0.0,False,NM,3e-07,225
mp-862949,NaPmTl2,-0.358777494375004,0.0,0.0,False,NM,2e-07,225
mp-865118,NaPrAu2,-0.5814311382614921,0.000593540937502,0.0,False,NM,4e-07,225
mp-1522047,NaPrDyFeO6,-2.459909492471264,0.192819317937498,0.34039999999999904,True,FiM,3.0000009,216
mp-1516571,NaPrDyMnO6,-2.605157348264367,0.198954511104167,0.0,True,FiM,2.0000008,216
mp-1519867,NaPrDySbO6,-2.797993535471263,0.18860626066666902,3.303499999999999,False,NM,0.0,216
mp-1516898,NaPrEuWO6,-2.745176341804598,0.16225698824999302,0.5144000000000001,True,FM,7.0,216
mp-1518838,NaPrHf2O6,-3.531624702304597,0.060319248500000006,2.8634999999999993,False,NM,0.0,225
mp-1522723,NaPrHfGaO6,-2.873243091054598,0.15299190941666801,0.0,True,FM,0.999999899999999,216
mp-1522403,NaPrHfNbO6,-3.217899045304598,0.148744637666665,0.0,False,NM,0.0003498,216
mp-1522088,NaPrHfSnO6,-2.9626468018045973,0.142082093843744,3.4145,False,NM,0.0007145999999990001,216
mp-1522207,NaPrHfTiO6,-3.438231605637931,0.095040955583332,2.2549,False,NM,0.0,216
mp-1518751,NaPrHfZrO6,-3.437486248304598,0.14756511384375,2.7095000000000002,False,NM,0.0,216
mp-865119,NaPrHg2,-0.44250345166666705,0.0,0.0,False,NM,0.0001048,225
mp-1520014,NaPrInSbO6,-2.283235541971264,0.195992288666669,1.4201000000000001,False,NM,0.0,216
mp-1516482,NaPrMgNbO6,-2.829461891804597,0.158088415645835,0.0,True,FM,1.0000002,216
mp-1522211,NaPrMnWO6,-2.4898946800977,0.12373781999999801,1.1303,True,FM,4.9999996,216
mp-1522162,NaPrNb2O6,-2.9515006523045972,0.159506611499999,0.0,False,NM,0.0177152,225
mp-865112,NaPrTl2,-0.36514797541666805,0.0021092467708280003,0.0,False,NM,1.16e-05,225
mp-1522734,NaPrYFeO6,-2.438942968304597,0.20099237787500002,0.3532,True,FM,3.0000008,216
mp-1521753,NaPrYSbO6,-2.780174024304597,0.193679631833335,3.282199999999999,False,NM,0.0,216
mp-1520589,NaPrZr2O6,-3.343553772304597,0.19452606724999702,2.578999999999999,False,NM,0.0,225
mp-1521691,NaPrZrFeO6,-2.665075123304598,0.16025049499999802,0.0,True,FM,4.0000008,216
mp-1518785,NaPrZrNbO6,-3.138438782304598,0.186195532458336,0.0,False,NM,5.8800000000000006e-05,216
mp-1517426,NaPrZrSnO6,-2.872871959804597,0.18488541324999902,3.279699999999999,False,NM,0.0,216
mp-1521981,NaPrZrTiO6,-3.34591554463793,0.13070204432812402,2.7003,False,NM,0.0,216
mp-976943,NaRe3,0.808284029612067,0.808284029612067,0.0,False,NM,0.0065229,225
mp-1058171,NaS,-0.49936464015625004,0.504905971249999,0.0,True,FM,1.0001455,225
mp-5955,NaSbF6,-2.862884680172413,0.0,4.8892,False,NM,0.0,225
mp-1205783,NaSc(NF3)2,-1.25191539863793,1.165950122499995,0.0,True,FM,4.0001931,225
mp-1100440,NaScSn,-0.026545640793652,0.48644050426984103,0.30399999999999905,False,NM,0.00036179999999900005,216
mp-1205541,NaScTl2F6,-3.149326909304599,0.0,4.5213,False,NM,4.89e-05,225
mp-1059357,NaSe,-0.5923550257812501,0.40776286500000003,0.0,True,FM,0.9989045,225
mp-1220929,NaSi34,0.113019668777092,0.11698316981280601,0.0,False,NM,0.999993199999999,216
mp-865111,NaSmAu2,-0.589452589094826,0.0,0.0,False,NM,2e-07,225
mp-1523299,NaSmEuWO6,-2.809645793137932,0.136039425749999,0.422299999999999,True,FM,7.0000002,216
mp-1519393,NaSmHf2O6,-3.495366459637931,0.13464280549999802,2.7992,False,NM,0.0,225
mp-865108,NaSmHg2,-0.43158557875000203,0.0029397258333290002,0.0,False,NM,9e-07,225
mp-1516729,NaSmMnWO6,-2.454467606431033,0.19741678249999903,0.9514,True,FM,5.0000007,216
mp-865109,NaSmTl2,-0.24867812826149602,0.0058931307812520005,0.0,False,NM,1.5e-06,225
mp-977110,NaSnPd2,-0.4145077125,0.028483886666663003,0.0,False,NM,0.0,225
mp-1205743,NaSr2IO6,-2.17902850863793,0.039334581500020005,2.417399999999999,False,NM,0.0003593,225
mp-865124,NaSr2In,-0.21268963951149303,0.023593699103702,0.0,False,NM,0.0116615,225
mp-1522511,NaSr2MnO6,-2.028282391931034,0.16372521150000602,0.0,True,FiM,2e-07,225
mp-1205676,NaSr2OsO6,-2.334082770137931,0.0,0.0,True,FM,0.9886307,225
mp-1206737,NaSr2ReO6,-2.63278524238793,0.044891419333337006,1.7730000000000001,False,NM,0.0006539,225
mp-865128,NaSr2Tl,-0.24754549249999802,0.0,0.0,False,NM,0.011413399999999001,225
mp-865121,NaSrAu2,-0.5846316874999961,0.026257758000003004,0.0,False,NM,1.3700000000000003e-05,225
mp-1518378,NaSrBiWO6,-2.236169800137931,0.113904515874998,2.0972,False,NM,0.0,216
mp-1517363,NaSrCaMnO6,-2.016780199931034,0.187511715777774,0.0,True,FiM,6e-07,216
mp-1519314,NaSrCeBiO6,-2.523576363137929,0.09939125968181901,1.793499999999999,False,NM,0.0,216
mp-1522517,NaSrCeFeO6,-2.435874235137931,0.124187588999996,0.0,True,FM,3.0000004,216
mp-1516683,NaSrCeMnO6,-2.577938101931035,0.130878620500004,0.0,True,FiM,2.0000003,216
mp-1517509,NaSrCeNbO6,-3.15337605413793,0.120072042583322,2.1442,False,NM,0.0,216
mp-1519609,NaSrCeSbO6,-2.79820146913793,0.074237546142857,1.974399999999999,False,NM,0.0,216
mp-1520917,NaSrCeWO6,-2.8139108351379303,0.142852641374998,0.0,True,FM,1.0,216
mp-1519070,NaSrCoBiO6,-1.5915366351379312,0.21262365249999102,0.0,True,FM,4.9501375,216
mp-1518306,NaSrDyFeO6,-2.248559018304597,0.135561932750002,0.0,True,FiM,2.0000002,216
mp-1520296,NaSrDyMnO6,-2.389139574097701,0.14369525824999502,0.0,True,FiM,4.79277,216
mp-1521091,NaSrDySeO6,-2.438353831538973,0.12819639999999502,2.079799999999999,False,NM,0.0,216
mp-1519128,NaSrDyWO6,-2.908479982304597,0.037250452895833,2.8974,False,NM,0.0,216
mp-1517725,NaSrEuMnO6,-2.118581172431036,0.273375830249996,0.0,True,FiM,7.0000006,216
mp-1518459,NaSrEuSeO6,-2.205103040872306,0.22147888499999802,0.0,True,FM,6.0,216
mp-1517020,NaSrEuWO6,-2.646169391637931,0.15476625987498402,0.0,True,FM,6.0000002,216
mp-1521745,NaSrEuWO6,-2.570007728637931,0.230927922874982,0.0,True,FM,5.9999998,216
mp-1519031,NaSrFeBiO6,-1.759574908137931,0.142046893999999,0.0,True,FM,5.8838572,216
mp-1518489,NaSrGdMnO6,-2.362148782931035,0.14236802850000102,0.0,True,FiM,8.0000006,216
mp-1517329,NaSrGdSeO6,-2.403329854372306,0.13581188024999502,2.0319,True,FM,7.0000001,216
mp-1518106,NaSrHfBiO6,-2.6109401661379312,0.08537264949999901,1.3445,False,NM,0.0,216
mp-1521941,NaSrHfNbO6,-3.29932408813793,0.029269756499996004,2.3776,False,NM,0.0,216
mp-1518616,NaSrHfSbO6,-2.90684989713793,0.027748828500000003,3.2996,False,NM,0.0,216
mp-1516820,NaSrHfWO6,-2.93083650513793,0.066299932333333,0.0,True,FM,1.0,216
mp-977115,NaSrHg2,-0.373060409094829,0.007105399375001001,0.0,False,NM,0.082132,225
mp-1520495,NaSrInWO6,-2.392116216804596,0.04687926149999801,3.4538,False,NM,0.0,216
mp-1522660,NaSrLaFeO6,-2.176978034637931,0.17869315495000201,0.0,True,FiM,1.9999999,216
mp-1520704,NaSrLaMnO6,-2.298355674431035,0.260882308083324,0.0,True,FiM,0.999999699999999,216
mp-1522549,NaSrLaSeO6,-2.377003094872307,0.157267921624992,2.234899999999999,False,NM,0.0,216
mp-1516668,NaSrLaWO6,-2.807287282637931,0.13141701089583602,2.9531,False,NM,0.0,216
mp-1522015,NaSrLaWO6,-2.7819652076379313,0.15673908589583502,2.754,False,NM,0.0,216
mp-1517402,NaSrMnBiO6,-1.869005865931034,0.17076667625000103,0.0,True,FM,3.2690287,216
mp-1521795,NaSrMnSnO6,-2.049451931431034,0.14307601593750202,0.0,True,FiM,2.0,216
mp-631481,NaSrNb2,1.575021724195401,1.575021724195401,0.0,True,FM,1.0722703,225
mp-1517893,NaSrNbBiO6,-2.426573038137931,0.135154514625001,0.0,False,NM,0.0001507,216
mp-1522961,NaSrNbSbO6,-2.54334363413793,0.158854458093753,0.0,False,NM,7.02e-05,216
mp-1520904,NaSrNbSnO6,-2.706804176637931,0.044441547125001,3.2357,False,NM,0.0,216
mp-1516413,NaSrNdFeO6,-2.159810714887931,0.169995627499991,0.0,True,FM,4.0000002,216
mp-1517834,NaSrNdMnO6,-2.285210521681034,0.193350718999997,0.0,True,FiM,1.0000001,216
mp-1516752,NaSrNdWO6,-2.705932518887931,0.20284940447916902,3.1607,False,NM,0.0,216
mp-1518824,NaSrNdWO6,-2.802883144887931,0.10589877847916801,2.8581000000000003,False,NM,0.0,216
mp-1519045,NaSrPrBiO6,-2.199918031304597,0.19317309206249902,0.0,False,NM,0.999999899999999,216
mp-1519261,NaSrPrFeO6,-2.138374965304598,0.177650588298082,0.0,True,FM,3.999999899999999,216
mp-1521790,NaSrPrMnO6,-2.261358919097701,0.20162253668750102,0.0,True,FiM,0.999999899999999,216
mp-1521567,NaSrPrNbO6,-2.836749696304598,0.19768841188020903,0.0,False,NM,0.999999899999999,216
mp-1521871,NaSrPrSbO6,-2.494238673304598,0.147463727654764,0.0,False,NM,1.0,216
mp-1521459,NaSrPrSeO6,-2.335145902538973,0.162460476437495,2.1145,False,NM,0.0,216
mp-1522414,NaSrPrWO6,-2.778743498304597,0.10695300323958501,2.8551,False,NM,0.0,216
mp-1522952,NaSrPrWO6,-2.720760687304597,0.164935814239584,3.1857,False,NM,0.0,216
mp-631534,NaSrRe2,2.046538816695403,2.046538816695403,0.0,True,FM,4.7568756,225
mp-1522343,NaSrSbWO6,-2.2242444991379298,0.171463570562501,1.115,False,NM,0.0,216
mp-1517805,NaSrSmFeO6,-2.195486132637931,0.15286149031249702,0.0,True,FiM,4.0000004,216
mp-1519593,NaSrSmMnO6,-2.322993727431035,0.17315825281250002,0.0,True,FiM,1.0000005,216
mp-1517453,NaSrSmSeO6,-2.3867179838723063,0.144058919562495,2.0883,False,NM,0.0,216
mp-1516403,NaSrSmWO6,-2.841569939637931,0.081531556677085,2.873599999999999,False,NM,0.0,216
mp-1522253,NaSrSnBiO6,-1.9725340966379301,0.13627557575000002,0.0,False,NM,0.0,216
mp-1519946,NaSrSnSbO6,-2.25215979763793,0.10092466650000201,0.0043,False,NM,0.0,216
mp-1521207,NaSrSnWO6,-2.28161892963793,0.14871040737500002,0.0,True,FM,1.0,216
mp-1517196,NaSrTbBiO6,-2.304328861804598,0.142351672640624,0.0,False,NM,1.0000001,216
mp-1517684,NaSrTbFeO6,-2.244266951804597,0.13413782268750202,0.0,True,FiM,3.9999997,216
mp-1523204,NaSrTbMnO6,-2.377393616597702,0.14963418009374502,0.0,True,FiM,1.0000005,216