material_id,formula,formation_energy,ehull,band_gap,is_magnetic_x,magnetic_ordering,total_magnetization_x,spacegroup,heusler_type,is_magnetic_y,total_magnetization_y
mp-864618,BaHg2Pb,-0.430415881250005,0.0,0.0,False,NM,1.4e-06,225,full,False,1.4e-06
mp-631498,BaMgOs2,1.32933736375,1.349463055000001,0.0,False,NM,0.000446899999999,225,full,False,0.000446899999999
mp-1183312,BaNa2Pb,-0.241546515689654,0.052564518060344,0.0,False,NM,2.56e-05,225,full,False,2.56e-05
mp-1183338,BaNa2Sn,-0.281572531939654,0.069749400560345,0.0,False,NM,1.3e-06,225,full,False,1.3e-06
mp-867147,BaNaHg2,-0.394867314094829,0.0,0.0,False,NM,2.4800000000000003e-05,225,full,False,2.4800000000000003e-05
mp-961774,BaNaSb,-0.694239730459769,0.118649861777776,0.422899999999999,False,NM,8.910000000000002e-05,216,half,False,8.910000000000002e-05
mp-962067,BaNaSn,-0.176811905459769,0.291617337873562,0.0,False,NM,0.0299186,216,half,False,0.0299186
mp-1183318,BaNaTl2,-0.257233097011497,0.031585659655176,0.0,False,NM,0.017693999999999,225,full,False,0.017693999999999
mp-631491,BaNbTc2,0.954847425,1.019612406249999,0.0,False,NM,0.0055371,225,full,False,0.0055371
mp-631703,BaRe2Sn,1.298175267499998,1.649497199999999,0.0,False,NM,0.001423,216,full,False,0.001423
mp-631492,BaScIr,0.901431278333333,1.607075240000001,0.0,False,NM,0.000206799999999,216,half,False,0.000206799999999
mp-631544,BaSiB,1.162864000277778,1.550995508611112,0.0,False,NM,0.003831599999999,216,half,False,0.003831599999999
mp-631504,BaSiTc2,1.002306545,1.2465010181249991,0.0,False,NM,0.0001175,216,full,False,0.0001175
mp-1183321,BaSr2Ca,0.021990865,0.024299925,0.0,False,NM,0.0005828,225,full,False,0.0005828
mp-1183392,BaSr2Eu,0.042798028749998,0.045107088749998,0.0,True,FM,7.4838876,225,full,True,7.4838876
mp-1227824,BaSr2Np,0.6608780403124991,0.6631871003124991,0.0,True,FM,5.0889421,216,full,True,5.0889421
mp-1183344,BaSrEu2,0.062391117499997,0.063545647499998,0.0,True,FM,14.9098401,225,full,True,14.9098401
mp-1183305,BaSrHg2,-0.511607163750004,0.016307632499998,0.0,False,NM,0.0004428,225,full,False,0.0004428
mp-1100434,BaSrSi,0.163959766666666,0.477941002916667,0.4914,False,NM,0.0001481,216,half,False,0.0001481
mp-962062,BaSrSn,-0.198036074999999,0.41453405,0.0028,False,NM,0.0006315,216,half,False,0.0006315
mp-1183386,BaSrTl2,-0.413215736666673,0.0,0.0,False,NM,2.7e-06,225,full,False,2.7e-06
mp-980191,BaSrYb2,0.426352086249998,0.426361090833331,0.0,True,FM,0.9358337,225,full,True,0.9358337
mp-631570,BaTaB,1.513706677833334,2.052572823333332,0.0,False,NM,0.0030091,216,half,False,0.0030091
mp-865984,BaTlHg2,-0.398012974583339,0.0,0.0,False,NM,6.9e-06,225,full,False,6.9e-06
mp-631495,BaYSc,0.8405989183333331,0.8405989183333331,0.0,True,FM,1.0131026,216,half,True,1.0131026
mp-631542,BaZrNi,0.6748585433333331,0.978681016666668,0.0,True,FM,1.2370875,216,half,True,1.2370875
mp-631489,Be2CdP,0.729983571339286,0.8745846048437501,0.0,False,NM,0.002832399999999,225,full,False,0.002832399999999
mp-867274,Be2CoIr,-0.458853827499999,0.0,0.0,True,FM,0.7264174,225,full,True,0.7264174
mp-867271,Be2CoNi,-0.412348772499999,0.0,0.0,False,NM,1.1e-06,225,full,False,1.1e-06
mp-867270,Be2CoPt,-0.5855304224999981,0.0,0.0,False,NM,8.130000000000001e-05,225,full,False,8.130000000000001e-05
mp-1227277,Be2CoSi,-0.184637479999999,0.113357043125001,0.0,False,NM,0.0032053,216,full,False,0.0032053
mp-867273,Be2CuIr,-0.399755665,0.0,0.0,False,NM,0.0,225,full,False,0.0
mp-865869,Be2CuPt,-0.459643522500002,0.0,0.0,False,NM,7e-07,225,full,False,7e-07
mp-865308,Be2CuRh,-0.422358172499999,0.0,0.0,False,NM,1.2e-06,225,full,False,1.2e-06
mp-865147,Be2CuRu,-0.248225409999999,0.000840249999997,0.0,False,NM,2.6200000000000003e-05,225,full,False,2.6200000000000003e-05
mp-631516,Be2HgTe,0.703955182708332,0.989136153124998,0.0,False,NM,0.001094299999999,225,full,False,0.001094299999999
mp-865003,Be2IrPd,-0.601694587499999,0.0,0.0,False,NM,0.0,225,full,False,0.0
mp-867280,Be2IrPt,-0.7096500949999981,0.0,0.0,False,NM,1.5e-06,225,full,False,1.5e-06
mp-1183419,Be2IrRu,-0.3871435625,0.0,0.0,False,NM,7.599999999999997e-06,225,full,False,7.599999999999997e-06
mp-865229,Be2NiIr,-0.5821398599999981,0.0,0.0,False,NM,0.0,225,full,False,0.0
mp-866224,Be2NiPt,-0.642503884999998,0.0,0.0,True,FM,0.155494499999999,225,full,True,0.155494499999999
mp-864895,Be2NiRh,-0.591903532499999,0.0,0.0,False,NM,5.7e-06,225,full,False,5.7e-06
mp-1183421,Be2NiRu,-0.3541496075,0.00452384875,0.0,False,NM,0.0002567,225,full,False,0.0002567
mp-864961,Be2PdPt,-0.6840280950000001,0.0,0.0,False,NM,0.0,225,full,False,0.0
mp-866115,Be2PdRh,-0.650607097499999,0.0,0.0,False,NM,2.4e-06,225,full,False,2.4e-06
mp-862600,Be2PtRh,-0.7654158374999991,0.0,0.0,False,NM,2.299999999999998e-06,225,full,False,2.299999999999998e-06
mp-631496,Be2ReCl,0.960056829374999,1.865869271406251,0.0,False,NM,0.0123679,216,full,False,0.0123679
mp-866024,Be2RhAu,-0.414462902499998,0.0,0.0,False,NM,5.799999999999999e-06,225,full,False,5.799999999999999e-06
mp-867307,Be2RuAu,-0.257657087499998,0.0,0.0,False,NM,6.47e-05,225,full,False,6.47e-05
mp-865021,Be2RuPt,-0.518279809999999,0.0,0.0,False,NM,0.0004548,225,full,False,0.0004548
mp-4262,BeAlB,-0.052399171388889,0.0,0.0,False,NM,4e-07,216,half,False,4e-07
mp-865966,BeAlIr2,-0.7749259637500001,0.0,0.0,False,NM,5e-07,225,full,False,5e-07
mp-862287,BeAlRh2,-0.8688942487500011,0.0,0.0,False,NM,1e-07,225,full,False,1e-07
mp-1183409,BeAsRu2,-0.243328645624999,0.027374849375001,0.0,False,NM,0.0003105,225,full,False,0.0003105
mp-631507,BeBiOs2,0.9701943362499992,1.050343917610293,0.0,False,NM,0.0090426,216,full,False,0.0090426
mp-862706,BeCo2Ge,-0.2954152475,0.0,0.0,False,NM,0.0005712,225,full,False,0.0005712
mp-865901,BeCo2Si,-0.5671847212500001,0.0,0.0,False,NM,2.9800000000000003e-05,225,full,False,2.9800000000000003e-05
mp-1183416,BeCrFe2,-0.10977993875,0.0,0.0,False,NM,5.35e-05,225,full,False,5.35e-05
mp-867837,BeCrRu2,-0.142905241249999,0.0,0.0,False,NM,3e-06,225,full,False,3e-06
mp-631505,BeCuBr,0.5713827866666661,1.306132023333334,0.076999999999999,False,NM,1.4e-05,216,half,False,1.4e-05
mp-862669,BeFe2Si,-0.379209641249999,0.0,0.0,True,FM,1.2013536,225,full,True,1.2013536
mp-867840,BeFeRh2,-0.326204368749999,0.0,0.0,True,FM,4.1952038,225,full,True,4.1952038
mp-984721,BeGaCo2,-0.273360490625,0.0080290625,0.0,False,NM,2.299999999999998e-06,225,full,False,2.299999999999998e-06
mp-867116,BeGaIr2,-0.493593135624998,0.0,0.0,False,NM,2.299999999999998e-06,225,full,False,2.299999999999998e-06
mp-862291,BeGaRh2,-0.671457313124999,0.0,0.0,False,NM,0.0,225,full,False,0.0
mp-631450,BeGe2Te,0.513970239583333,0.7991512099999991,0.0,False,NM,0.001864,216,full,False,0.001864
mp-631541,BeGeB,0.7571133102777781,0.764078784791667,0.0,False,NM,0.0003483,216,half,False,0.0003483
mp-862713,BeGeRu2,-0.279699512499998,0.0,0.0,False,NM,3.15e-05,225,full,False,3.15e-05
mp-631497,BeInBi,0.7127795761111101,0.740610409999998,0.0,False,NM,0.000257499999999,216,half,False,0.000257499999999
mp-631467,BeInSi2,0.7485456745833331,0.7485456745833331,0.0,False,NM,0.000325,216,full,False,0.000325
mp-867828,BeNbRu2,-0.27588973375,0.0,0.0,False,NM,0.0003772,225,full,False,0.0003772
mp-631537,BeReB,0.8464212311111101,1.2495247475,0.0,False,NM,0.0030114,216,half,False,0.0030114
mp-862622,BeRu2W,-0.206969273749999,0.0,0.0,False,NM,0.0,225,full,False,0.0
mp-631578,BeSbAs2,0.6346474724999991,0.6393781443749991,0.0,False,NM,0.0003292,225,full,False,0.0003292
mp-865904,BeSiIr2,-0.663109713750001,0.0,0.0,False,NM,3.299999999999999e-06,225,full,False,3.299999999999999e-06
mp-865792,BeSiNi2,-0.508235893749999,0.0,0.0,False,NM,0.0,225,full,False,0.0
mp-867107,BeSiOs2,-0.295685938749999,0.0,0.0,False,NM,1.5300000000000003e-05,225,full,False,1.5300000000000003e-05
mp-1008491,BeSiP2,0.5609131214285721,0.933508565,0.0,False,NM,0.000204299999999,225,full,False,0.000204299999999
mp-867767,BeSiRh2,-0.812091816249999,0.0,0.0,False,NM,4.2e-06,225,full,False,4.2e-06
mp-867835,BeSiRu2,-0.5546445212500011,0.0,0.0,False,NM,3.4e-05,225,full,False,3.4e-05
mp-631462,BeTcSe,0.416852705885416,1.103111281666666,0.0,False,NM,0.0002881,216,half,False,0.0002881
mp-866288,BeVCo2,-0.280405191249999,0.0,0.0,True,FiM,0.9993382,225,full,True,0.9993382
mp-867304,BeVFe2,-0.232274796249999,0.0,0.0,True,FiM,0.9740513,225,full,True,0.9740513
mp-867275,BeVOs2,-0.248326893749997,0.0,0.0,False,NM,0.0002654,225,full,False,0.0002654
mp-867874,BeVRu2,-0.351394493749999,0.0,0.0,False,NM,4.999999999999999e-06,225,full,False,4.999999999999999e-06
mp-631535,BeW2Cl,0.8665887737500001,1.615826205625001,0.0,False,NM,0.1010605,225,full,False,0.1010605
mp-631571,Bi2OsAu,0.7218321493749961,0.7218321493749961,0.0,True,FM,0.139317599999999,225,full,True,0.139317599999999
mp-631577,BiAs2Os,0.7428304074999941,0.970749996249999,0.0,False,NM,0.001570099999999,216,full,False,0.001570099999999
mp-631539,BiBCl,1.5898406582407412,2.0539569512963,0.0,False,NM,0.0068781,216,half,False,0.0068781
mp-631511,BiBTe,1.101091086388886,1.25353608861111,0.0,False,NM,0.00035,216,half,False,0.00035
mp-631482,BiMoRh,0.524144535000004,0.7002014387499991,0.0,False,NM,0.0044434,216,half,False,0.0044434
mp-1183442,BiPd2Au,-0.189795123750002,0.02427540224999,0.0,False,NM,0.0,225,full,False,0.0
mp-631474,BiSb2Os,0.7353753435416761,0.798371127291673,0.0,False,NM,0.0006351,225,full,False,0.0006351
mp-631440,BiTeIr,0.9243571516666592,1.232165209166673,0.0,False,NM,3.399999999999998e-06,216,half,False,3.399999999999998e-06
mp-983850,Ca2AgAu,-0.55499469375,0.025546808749999,0.0,False,NM,2.8e-06,225,full,False,2.8e-06
mp-983598,Ca2AgBi,-0.728312803333341,0.027510130208334,0.0,False,NM,0.0048904,225,full,False,0.0048904
mp-983566,Ca2AgGe,-0.5064037787500001,0.056231793409089,0.0,False,NM,5.4e-06,225,full,False,5.4e-06
mp-864991,Ca2AgPb,-0.466619667916664,0.0,0.0,False,NM,0.0001347,225,full,False,0.0001347
mp-1183456,Ca2AgPd,-0.461979811249998,0.033896488020833,0.0,False,NM,0.0004504,225,full,False,0.0004504
mp-1183516,Ca2AgRh,-0.299633551249998,0.051606258958335,0.0,False,NM,2.2e-06,225,full,False,2.2e-06
mp-867751,Ca2AgSn,-0.532931791666665,0.0,0.0,False,NM,1.0800000000000002e-05,225,full,False,1.0800000000000002e-05
mp-867113,Ca2AsAu,-1.093239665624999,0.040253862187515,0.1981,False,NM,0.0,225,full,False,0.0
mp-867799,Ca2BiAu,-0.9215019562500012,0.000284773125013,0.0002,False,NM,0.0,225,full,False,0.0
mp-1183448,Ca2CdGa,-0.390616901874999,0.0151266525,0.0,False,NM,5.2e-06,225,full,False,5.2e-06
mp-1183458,Ca2CdHg,-0.439013755625001,0.00332135,0.0,False,NM,1.38e-05,225,full,False,1.38e-05
mp-977453,Ca2CdIn,-0.412268204166666,0.0,0.0,False,NM,2.5800000000000004e-05,225,full,False,2.5800000000000004e-05
mp-865167,Ca2CdPb,-0.492539167499998,0.0,0.0,False,NM,4e-07,225,full,False,4e-07
mp-861940,Ca2CdSn,-0.551291871249999,0.0,0.0,False,NM,1.77e-05,225,full,False,1.77e-05
mp-631696,Ca2CoW,1.029828753333333,1.029828753333333,0.0,True,FM,1.077572,216,full,True,1.077572
mp-1183482,Ca2CuRh,-0.239972575069444,0.035739592986111,0.0,False,NM,0.0021123,225,full,False,0.0021123
mp-1226627,CeMg2Ni,-0.018098449999998,0.173408901875001,0.0,True,AFM,0.142613799999999,216,full,True,0.142613799999999
mp-865037,CeMgAg2,-0.162358384583332,0.019158329374999,0.0,True,FM,1.3096361,225,full,True,1.3096361
mp-1183717,CeMgAu2,-0.648001093749997,0.0,0.0,True,FM,1.1935752,225,full,True,1.1935752
mp-1183727,CeMgCd2,-0.202599081249998,0.0,0.0,True,FM,1.1435484,225,full,True,1.1435484
mp-1183744,CeMgHg2,-0.381915385000003,0.0,0.0,True,FM,0.9802168,225,full,True,0.9802168
mp-13254,CeMgZn2,-0.273050123749999,0.0,0.0,True,FM,0.8761481,225,full,True,0.8761481
mp-1183768,CeNdHg2,-0.5121771431250011,0.000743022500003,0.0,True,FiM,0.2899034,225,full,True,0.2899034
mp-1183819,CeNdZn2,-0.175518341874998,0.100424128750002,0.0,True,FM,1.1925496,225,full,True,1.1925496
mp-34976,CeOF,-4.0010658,0.083501268333336,0.0,True,FM,0.9993622,216,half,True,0.9993622
mp-1183814,CePbAu2,-0.5589214249999951,0.0,0.0,True,FM,0.974214999999999,225,full,True,0.974214999999999
mp-1183812,CePmMg2,0.006334738125,0.07691734125,0.0,True,FM,1.1783771,225,full,True,1.1783771
mp-983551,CePmTl2,-0.475523181874997,0.0,0.0,True,FiM,0.6198737,225,full,True,0.6198737
mp-983559,CePmZn2,-0.248268974374998,0.0,0.0,True,FM,1.0521288,225,full,True,1.0521288
mp-1183860,CePrHg2,-0.507816801666663,0.000200059999997,0.0,True,FiM,0.260938499999999,225,full,True,0.260938499999999
mp-1183722,CePrMg2,0.010507304583334,0.0830273975,0.0,True,FM,1.1024626,225,full,True,1.1024626
mp-1183845,CeSmMg2,0.00174646875,0.06423026875,0.0,True,FM,1.0467861,225,full,True,1.0467861
mp-1183757,CeSmTl2,-0.298414765416666,0.016373712500002,0.0,True,FiM,0.621698099999999,225,full,True,0.621698099999999
mp-1183758,CeSmZn2,-0.248229848749999,0.035519875,0.0,True,FM,1.1144752,225,full,True,1.1144752
mp-867310,CeSnAu2,-0.656840798749994,0.0,0.0,True,FM,1.0220219,225,full,True,1.0220219
mp-867298,CeTlAg2,-0.161305699166667,0.004450603888888,0.0,True,FM,1.0964941,225,full,True,1.0964941
mp-867361,CeTlAu2,-0.516936933333336,0.0,0.0,True,FM,1.0640292,225,full,True,1.0640292
mp-1184197,CeTmIn2,-0.5620050000000021,0.0,0.0,True,FM,0.9153657,225,full,True,0.9153657
mp-1183796,CeTmMg2,-0.021953490833336,0.033561233333333,0.0,True,FM,0.9565591,225,full,True,0.9565591
mp-984048,CeYIn2,-0.587677257499997,0.0,0.0,True,FM,0.8637954,225,full,True,0.8637954
mp-866045,CeYMg2,0.000285212500001,0.047628005,0.0,True,FM,1.171073,225,full,True,1.171073
mp-1006256,CeYTl2,-0.460305484999999,0.0,0.0,True,FM,0.6270721,225,full,True,0.6270721
mp-984049,CeYZn2,-0.262224127499999,0.020968032500001,0.0,True,FM,1.0158957,225,full,True,1.0158957
mp-867186,CeZn2Ag,-0.216130537916665,0.028436172348484,0.0,True,FM,0.8141066,225,full,True,0.8141066
mp-1183743,CeZnAu2,-0.532446484999998,0.026783639687497,0.0,False,NM,0.0176587,225,full,False,0.0176587
mp-12801,CoCu2Sn,0.200921928749999,0.248861766666666,0.0,True,FM,1.0655801,225,full,True,1.0655801
mp-631310,CoReGe2,0.5981970912499961,0.634434378124996,0.0,True,FM,0.484087699999999,216,full,True,0.484087699999999
mp-1062795,CoSI,0.1874278025,0.664607446250002,0.0,True,FM,2.0114207,216,half,True,2.0114207
mp-1008277,CrCo2As,0.021477920624999,0.162609864999999,0.0,True,FM,4.994962,225,full,True,4.994962
mp-1018080,CrCo2Bi,0.383140220000001,0.383140220000001,0.0,True,FM,5.001237,225,full,True,5.001237
mp-1183740,CrCo2Ge,-0.114220481249999,0.0,0.0,True,FM,3.9989286,225,full,True,3.9989286
mp-1018082,CrCo2Sb,0.071086779583332,0.120381471249999,0.0,True,FM,4.9944516,225,full,True,4.9944516
mp-1008224,CrCo2Si,-0.229811197499998,0.018480944374999,0.0,True,FM,4.0004652,225,full,True,4.0004652
mp-1009593,CrCoTe,-0.050198278888888,0.208413515833332,0.0,True,FiM,3.0174209,216,half,True,3.0174209
mp-1007924,CrCu2Si,0.208971618766668,0.316730743250001,0.0,True,FM,3.3497926,225,full,True,3.3497926
mp-1100441,CrCuB,0.266352726666667,0.5401955608333341,0.0,True,FM,1.9994674,216,half,True,1.9994674
mp-1008225,CrFe2Sb,0.140628065,0.199129489999999,0.0,True,FM,3.0171368,225,full,True,3.0171368
mp-1018068,CrFe2Si,-0.23806202,0.072284900416665,0.0,True,FM,1.9996215,225,full,True,1.9996215
mp-1008226,CrFe2Sn,0.25434606875,0.255708534999998,0.0,True,FM,4.0285434,225,full,True,4.0285434
mp-1009592,CrFeTe,-0.010901138888887,0.247710655833333,0.0,True,FiM,2.0012812,216,half,True,2.0012812
mp-567981,CrGaCo2,-0.076226381249998,0.02157659625,0.0,True,FM,3.0081604,225,full,True,3.0081604
mp-30570,CrGaFe2,-0.027434201874998,0.086920204765625,0.0,True,FiM,0.9951089,225,full,True,0.9951089
mp-1183690,CrGaRh2,-0.385778979374999,0.0,0.0,True,FM,3.1131696,225,full,True,3.1131696
mp-1183688,CrGaRu2,-0.205630712500003,0.0,0.0,True,FiM,1.3161369,225,full,True,1.3161369
mp-631421,CrGaTe,0.356367661944444,0.7426674763888901,0.0,True,FM,4.6751824,216,half,True,4.6751824
mp-961725,CrGeRh,-0.014577054999998,0.359923949999998,0.0,True,FM,3.5376503,216,half,True,3.5376503
mp-1206594,CrGeRu2,-0.287216905000001,0.0,0.0,True,FiM,2.0245505,225,full,True,2.0245505
mp-16735,CrInCo2,0.197613787708334,0.203058120416667,0.0,True,FM,3.115169,225,full,True,3.115169
mp-1007961,CrInCu2,0.175193845178572,0.201800347142858,0.0,True,FM,3.3509644,225,full,True,3.3509644
mp-1007991,CrInNi2,0.046278841250002,0.152881741249999,0.0,True,FM,3.4573721,225,full,True,3.4573721
mp-631404,CrIrRu,0.62380179555556,0.7386745100000021,0.0,True,FiM,1.7321705,216,half,True,1.7321705
mp-631502,CrNi2Hg,0.40069030875,0.40069030875,0.0,True,FM,3.9975329,216,full,True,3.9975329
mp-1018161,CrNiSb,-0.015090736666666,0.154392663333332,0.0,True,FM,3.0077274,216,half,True,3.0077274
mp-865791,CrSiRu2,-0.495204123750003,0.0,0.0,True,FiM,2.0073762,225,full,True,2.0073762
mp-1183708,CrSnRh2,-0.272315713749999,0.017585407499998,0.0,True,FM,4.1249301,225,full,True,4.1249301
mp-1206591,CrSnRu2,-0.05645200455357,0.006014486071428,0.0,True,FiM,2.0190708,225,full,True,2.0190708
mp-1185537,Cs2HgTe,-0.8529707771192531,0.0,1.8046,False,NM,0.0,225,full,False,0.0
mp-1183766,Cs2KRb,0.032940831484913,0.032940831484913,0.0,False,NM,0.0016649,225,full,False,0.0016649
mp-866100,Er2CuOs,-0.310016727499999,0.0,0.0,False,NM,3.5e-06,225,full,False,3.5e-06
mp-1184092,Er2CuPd,-0.613074276666665,0.014831338333326,0.0,False,NM,6.099999999999997e-06,225,full,False,6.099999999999997e-06
mp-862940,Er2CuPt,-0.860273706666667,0.013169655833337,0.0,False,NM,1e-07,225,full,False,1e-07
mp-862944,Er2CuRu,-0.385642007499998,0.0,0.0,False,NM,2.4e-06,225,full,False,2.4e-06
mp-1184097,Er2CuTc,-0.151292746249996,0.084457972812501,0.0,False,NM,7.52e-05,225,full,False,7.52e-05
mp-866004,Er2InAg,-0.393797592083329,0.0,0.0,False,NM,1.49e-05,225,full,False,1.49e-05
mp-1184102,Er2InHg,-0.5538206235416681,0.004654065000003,0.0,False,NM,0.002977999999999,225,full,False,0.002977999999999
mp-861984,Er2IrPd,-0.963495954999996,0.0,0.0,False,NM,2.8e-06,225,full,False,2.8e-06
mp-861985,Er2IrRh,-0.9427768949999972,0.0,0.0,False,NM,3.13e-05,225,full,False,3.13e-05
mp-867214,Er2IrRu,-0.6863176874999981,0.0,0.0,False,NM,3.799999999999998e-06,225,full,False,3.799999999999998e-06
mp-861946,Er2MgAl,-0.254361973749999,0.0,0.0,False,NM,3e-07,225,full,False,3e-07
mp-1184086,Er2MgCd,-0.166499903749998,0.008728464999999,0.0,False,NM,0.0006631,225,full,False,0.0006631
mp-1184090,Er2MgGa,-0.317217078124998,0.043858688020834,0.0,False,NM,0.0026403,225,full,False,0.0026403
mp-863702,Er2MgIn,-0.287367275416663,0.0,0.0,False,NM,0.0023317,225,full,False,0.0023317
mp-1184112,Er2MgOs,-0.173458086249997,0.054174876125002,0.0,False,NM,7.499999999999998e-06,225,full,False,7.499999999999998e-06
mp-1184126,Er2MgTc,-0.029198859999999,0.081721297812499,0.0,False,NM,0.0007455,225,full,False,0.0007455
mp-983556,Er2MgTl,-0.198388384583333,0.017700571000001,0.0,False,NM,0.002157499999999,225,full,False,0.002157499999999
mp-862992,Er2NiIr,-0.708694914999996,0.016456293750001,0.0,False,NM,0.000239099999999,225,full,False,0.000239099999999
mp-867344,Er2NiOs,-0.356068614999997,0.047857004125002,0.0,True,FiM,0.319955899999999,225,full,True,0.319955899999999
mp-862615,Er2NiRu,-0.450974312499996,0.0,0.0,True,FiM,0.3360545,225,full,True,0.3360545
mp-867213,Er2OsPd,-0.605359682499996,0.022984457250001,0.0,False,NM,6e-06,225,full,False,6e-06
mp-983555,Er2PdAu,-0.9481179916666632,0.030108422499999,0.0,False,NM,2.0200000000000003e-05,225,full,False,2.0200000000000003e-05
mp-1184099,Er2PdPt,-1.180886901666667,0.02991314583334,0.0,False,NM,1.65e-05,225,full,False,1.65e-05
mp-983581,Er2PdRh,-0.9299678574999992,0.008980392499998,0.0,False,NM,2.34e-05,225,full,False,2.34e-05
mp-866281,Er2PdRu,-0.705442597499997,0.0,0.0,False,NM,1.2400000000000002e-05,225,full,False,1.2400000000000002e-05
mp-1184081,Er2RuAu,-0.6295216224999991,0.007891515937497,0.0,False,NM,8.060000000000001e-05,225,full,False,8.060000000000001e-05
mp-1184144,Er2RuPt,-0.8471825649999991,0.0,0.0,False,NM,0.001164699999999,225,full,False,0.001164699999999
mp-863666,Er2RuRh,-0.689887254999998,0.0,0.0,False,NM,1.3e-06,225,full,False,1.3e-06