material_id,formula,formation_energy,ehull,band_gap,is_magnetic,magnetic_ordering,total_magnetization,spacegroup
mp-1111310,Cs2TaCuF6,-2.786545787586649,0.188767524199999,0.41079999999999905,False,NM,0.0,225
mp-1112879,Cs2TaCuI6,-0.875837288664367,0.20286679503125002,0.0,True,FM,1.9313597,225
mp-1112610,Cs2TaHgF6,-2.864282693914369,0.0,0.0,True,FM,1.0017923,225
mp-1112483,Cs2TaTlF6,-2.674347981733333,0.30096533005331905,0.0,True,FM,2.0,225
mp-1112921,Cs2TbAuCl6,-2.074623368597698,0.081309248999997,2.181,False,NM,0.0,225
mp-1113207,Cs2TbCuCl6,-2.03379767004167,0.029859650749997003,2.5342000000000002,False,NM,3.6800000000000014e-05,225
mp-1205840,Cs2TcCl6,-1.636041284999998,0.0,1.2924,True,FM,3.0000001,225
mp-1206848,Cs2TcI6,-1.040805984923372,0.0,0.6815,True,FM,2.9999998,225
mp-23405,Cs2TeBr6,-1.45449107844189,0.0,2.1121,False,NM,0.0,225
mp-23465,Cs2TeCl6,-1.447215981666665,0.0,2.7815000000000003,False,NM,0.0,225
mp-540957,Cs2TeI6,-1.070394815108554,0.0,1.3877000000000002,False,NM,0.0,225
mp-27828,Cs2TiCl6,-2.06158007574074,0.0,2.2291,False,NM,0.0,225
mp-1206662,Cs2TiI6,-1.376752052515965,0.0,0.8643000000000001,False,NM,0.0,225
mp-1113444,Cs2TlAgBr6,-1.351672621431034,0.004289197250001001,0.0,False,NM,2.4e-06,225
mp-1113442,Cs2TlAgCl6,-1.5787584944310251,0.0,0.0,False,NM,6e-07,225
mp-1113150,Cs2TlAgF6,-2.3620012504310353,0.0,0.805299999999999,False,NM,0.000256,225
mp-1112933,Cs2TlAgI6,-1.010044748431035,0.05164121437500101,0.0,False,NM,0.0010067,225
mp-1112112,Cs2TlAsBr6,-1.421802531014368,0.0,1.2314,False,NM,0.000882,225
mp-1112502,Cs2TlAsCl6,-1.667370324014368,0.015394150500000002,2.0627,False,NM,0.0006876,225
mp-1112503,Cs2TlAsF6,-2.585479973014368,0.005042952749997,2.9734,False,NM,0.0001494,225
mp-1112544,Cs2TlAsI6,-1.059115153014369,0.0,1.0046,False,NM,0.000744,225
mp-1112500,Cs2TlAuBr6,-1.295307690264369,0.041224892374998004,0.0,False,NM,0.0047737,225
mp-1113536,Cs2TlAuCl6,-1.493798939264369,0.051308717999996006,0.0,False,NM,0.0003773,225
mp-1112499,Cs2TlAuF6,-2.092772584333334,0.10891848033333601,0.0,False,NM,0.00018539999999900002,225
mp-1113379,Cs2TlAuI6,-0.990864224264368,0.050937955874998005,0.0,False,NM,0.0036902,225
mp-1112498,Cs2TlBiBr6,-1.549795573264369,0.008358704500001,1.7359,False,NM,3e-06,225
mp-1112109,Cs2TlBiCl6,-1.8018478402643692,0.007730570833336001,2.2018,False,NM,0.0011371,225
mp-557664,Cs2TlBiF6,-2.596629716500001,0.0,3.093899999999999,False,NM,0.0,225
mp-1112501,Cs2TlBiI6,-1.170902798264369,0.023518774000002,1.3773,False,NM,0.0045255,225
mp-1112565,Cs2TlCoF6,-2.50312712826437,0.051122889375,2.9239,False,NM,2.7800000000000005e-05,225
mp-1112495,Cs2TlCrF6,-2.8909923052643682,0.0,4.1533,True,FM,2.9998407,225
mp-1113558,Cs2TlCuBr6,-1.337138791264368,0.014733021625,0.0,False,NM,0.0540157,225
mp-1113205,Cs2TlCuCl6,-1.5713470202643691,0.011440826166674,0.0,False,NM,0.058720999999999,225
mp-1112637,Cs2TlCuF6,-2.332421550263185,0.0427765415,0.0,True,FM,0.2833885,225
mp-504603,Cs2TlFeF6,-2.7245106522643683,0.0,2.9057,True,FM,4.9999031,225
mp-1112492,Cs2TlGaBr6,-1.536351602014368,0.071381373249999,1.7459,False,NM,0.0005878999999990001,225
mp-1112002,Cs2TlGaCl6,-1.8234810050143682,0.055994328249999004,2.6597,False,NM,0.0001188,225
mp-989558,Cs2TlGaF6,-2.851459309014368,0.0,4.763400000000001,False,NM,0.0003736,225
mp-989553,Cs2TlGaH6,-0.11460608176436801,0.11527009579166701,0.383399999999999,False,NM,6.97e-05,225
mp-1112110,Cs2TlGaI6,-1.123866864014369,0.077698505500001,0.5740000000000001,False,NM,0.0011497,225
mp-1112900,Cs2TlHgBr6,-1.3793292675143691,0.023607437999999002,0.0,False,NM,0.0003247,225
mp-1113292,Cs2TlHgCl6,-1.593100511514369,0.022777958666663,0.0,False,NM,0.000347,225
mp-1113141,Cs2TlHgF6,-2.344871768514369,0.03414836,0.0,False,NM,0.0022818,225
mp-1113282,Cs2TlHgI6,-1.039823000514369,0.06167076193749901,0.0,False,NM,0.0014611,225
mp-996944,Cs2TlInBr6,-1.577039565931035,0.0,1.8255,False,NM,0.000144,225
mp-1112490,Cs2TlInCl6,-1.849192811931035,0.0,2.7015000000000002,False,NM,0.0001389,225
mp-989537,Cs2TlInF6,-2.787644960931035,0.0,3.9896000000000003,False,NM,0.00011829999999900002,225
mp-996945,Cs2TlInH6,-0.149304005569445,0.0013045000555580001,0.411699999999999,False,NM,4.7100000000000006e-05,225
mp-1112107,Cs2TlInI6,-1.174716372931035,0.039499220749999,1.4001000000000001,False,NM,0.0004462,225
mp-560710,Cs2TlMoF6,-2.7601947402643683,0.0,3.8865,True,FM,2.9988189,225
mp-1112343,Cs2TlPdF6,-2.221543550500001,0.034503100999998,0.0,True,FM,1.0049803,225
mp-1112340,Cs2TlRhF6,-2.422730792264368,0.0,1.9056000000000002,False,NM,0.0008939,225
mp-1112339,Cs2TlRuF6,-2.4047394292643682,0.0,0.5579000000000001,True,FM,1.0000086,225
mp-1112108,Cs2TlSbBr6,-1.500406737264369,0.014962783,1.2294,False,NM,0.0005059,225
mp-1112003,Cs2TlSbCl6,-1.750358806264368,0.010369679500000001,2.004299999999999,False,NM,0.0007721,225
mp-1112551,Cs2TlSbF6,-2.678376275264368,0.046435319749999,2.4839,False,NM,0.0025746,225
mp-1112105,Cs2TlSbI6,-1.127291882264368,0.023419340000002002,0.9367000000000001,False,NM,0.003030499999999,225
mp-989560,Cs2TlSiH6,-0.090500304833335,0.012647427166667,0.0,False,NM,0.0042834,225
mp-557533,Cs2TlVF6,-2.948574419264369,0.0,0.0,True,FM,1.999989799999999,225
mp-1111447,Cs2TmCuCl6,-2.02414600125,0.039892031249992,2.436499999999999,False,NM,0.0001528,225
mp-540735,Cs2UBr6,-1.9703121910344832,0.0,0.0,True,FM,2.0000001,225
mp-1112639,Cs2VAgF6,-2.736490122166665,0.140344910833334,0.0,True,FM,2.0000316,225
mp-1206014,Cs2VCl6,-1.810474013888888,0.0,0.0,True,FM,0.999999899999999,225
mp-541753,Cs2WBr6,-1.4637018377011501,0.0,0.0,True,FM,1.999999799999999,225
mp-30234,Cs2WCl6,-1.812488828812256,0.0,0.0,True,FM,2.0000001,225
mp-1112323,Cs2YAgBr6,-1.9004306030977012,0.009489403312495,3.335,False,NM,0.00040199999999900005,225
mp-1112288,Cs2YAgCl6,-2.207876866097701,0.0,3.8705,False,NM,0.000376,225
mp-1110987,Cs2YAgF6,-3.207796222097701,0.0,3.3465,False,NM,1.13e-05,225
mp-1112931,Cs2YAgI6,-1.4560710330977011,0.020861807250000003,2.459399999999999,False,NM,0.0015467,225
mp-1112918,Cs2YAuBr6,-1.7802310989310342,0.095617688249996,1.863,False,NM,0.0005519,225
mp-1112919,Cs2YAuCl6,-1.928428167749996,0.099735442499984,2.2263,False,NM,0.000495,225
mp-1113108,Cs2YAuF6,-2.3129444361666742,0.8171421753333231,2.0605,False,NM,1.67e-05,225
mp-1112916,Cs2YAuI6,-1.361819761931035,0.077787750499998,1.1517,False,NM,0.001238199999999,225
mp-1111878,Cs2YCuBr6,-1.841111695931034,0.048935451749996,2.0386,False,NM,0.0003524,225
mp-1112909,Cs2YCuCl6,-2.022476435000006,0.040192690500004,2.5338000000000003,False,NM,7.170000000000001e-05,225
mp-1110977,Cs2YCuF6,-3.15294846552083,0.084189120479166,1.4267,False,NM,0.0,225
mp-1112877,Cs2YCuI6,-1.390349050931035,0.06680352224999901,1.7212,False,NM,0.000624,225
mp-1112897,Cs2YHgBr6,-1.827719125181035,0.08654792693749801,0.0,False,NM,0.4266085,225
mp-1112898,Cs2YHgCl6,-2.120264513181035,0.10193598525000101,0.0,True,FM,0.904891599999999,225
mp-1112607,Cs2YHgF6,-3.131471416181035,0.09148386074999501,0.0,True,FM,1.0038741,225
mp-1112895,Cs2YHgI6,-1.400235686181035,0.07134717362499901,0.0,True,FM,0.701080399999999,225
mp-1113063,Cs2YInBr6,-1.9565378755977,0.006738723500000001,2.9636,False,NM,0.0007524,225
mp-1112628,Cs2YInCl6,-2.134735461854148,0.009258284562495,3.496,False,NM,0.0009862,225
mp-1113062,Cs2YInF6,-3.320911532999997,0.018044472500003,4.0503,False,NM,0.0067585,225
mp-1112795,Cs2YInI6,-1.505596727597701,0.0009321435,0.050899999999999,False,NM,0.0008985999999990001,225
mp-1112106,Cs2YTlBr6,-1.998179181264368,0.008339522999997,3.6928,False,NM,0.0006416,225
mp-1112103,Cs2YTlCl6,-2.310220579264368,0.0076829537499980005,4.3248,False,NM,0.0008311999999990001,225
mp-1112482,Cs2YTlF6,-3.327059235999999,0.0,4.705399999999999,False,NM,3e-07,225
mp-1112156,Cs2YTlI6,-1.5453325372643691,0.003941125,3.0866,False,NM,0.000926,225
mp-570545,Cs2ZnFe(CN)6,-0.27631024495689704,0.009423104661459,4.151199999999999,False,NM,0.004725399999999,225
mp-638729,Cs2ZrCl6,-2.241028756666665,0.0,3.6531000000000002,False,NM,0.0,225
mp-1206511,Cs2ZrI6,-1.508440314367814,0.0,1.839799999999999,False,NM,0.0,225
mp-1232419,Cs3Ac,0.535924593426727,0.535924593426727,0.0,True,FM,2.0033589,225
mp-1112379,Cs3AlBr6,-1.826127678896551,0.082488092999998,3.3834,False,NM,0.00041979999999900005,225
mp-1113233,Cs3AlCl6,-2.013091033499998,0.05973538775000001,4.6735,False,NM,4.7e-06,225
mp-1113118,Cs3AlF6,-3.390822127999999,0.0,6.2623,False,NM,0.0,225
mp-1112654,Cs3AlI6,-1.356171234896552,0.06340207574999901,2.106999999999999,False,NM,0.0014226,225
mp-1112376,Cs3AsBr6,-1.5591350106465511,0.016018400499999003,2.9211,False,NM,0.0,225
mp-1112373,Cs3AsCl6,-1.816354259646551,0.052406706999999005,3.4844,False,NM,0.0015194,225
mp-1113159,Cs3AsF6,-2.750464199646551,0.014839227000001001,4.3032,False,NM,0.0,225
mp-1112951,Cs3AsI6,-1.1831171806465521,0.045827709500001,2.3403,False,NM,0.0027908,225
mp-1112982,Cs3AuBr6,-1.364355470896552,0.138097173125,0.0,True,FM,1.9957075,225
mp-635413,Cs3Bi,-0.46584940374999906,0.0,0.17899999999999902,False,NM,0.0,225
mp-1112980,Cs3BiBr6,-1.694286085896552,0.044006506999999,3.4221,False,NM,0.0020574,225
mp-1112371,Cs3BiCl6,-1.774957880499991,0.053878788999998005,3.9505,False,NM,0.003040799999999,225
mp-1112606,Cs3BiF6,-2.775970918499999,0.0,4.5888,False,NM,0.0,225
mp-1112977,Cs3BiI6,-1.302196187896552,0.064825673000001,2.8318000000000003,False,NM,0.001198799999999,225
mp-1112370,Cs3CeCl6,-2.327281017499999,0.077042911749995,0.3518,True,FM,1.0,225
mp-632715,Cs3CeF6,-3.461380038896552,0.0,0.0,True,FM,1.0000002,225
mp-1206497,Cs3CoF6,-2.661095949896553,0.0,2.912,False,NM,0.0,225
mp-1206092,Cs3DyCl6,-2.3682019679999993,0.027508847749999003,4.745,False,NM,0.0,225
mp-1112369,Cs3ErCl6,-2.371759285583329,0.044476981499997,4.7715,False,NM,0.0,225
mp-1206721,Cs3EuCl6,-2.16684485125001,0.039820090750001,0.0,True,FM,6.0005061,225
mp-1205629,Cs3FeF6,-2.89650030189655,0.0,4.0085,True,FM,4.9999999,225
mp-1112368,Cs3GaBr6,-1.684047033646552,0.10382425674999801,2.3433,False,NM,0.0011462,225
mp-1113231,Cs3GaCl6,-1.984336594646551,0.08113523075000101,3.6339,False,NM,0.000366699999999,225
mp-1113117,Cs3GaF6,-3.026964315646551,0.0,5.8579,False,NM,0.0,225
mp-1114197,Cs3GaI6,-1.255139862646552,0.09599926075000201,1.1612,False,NM,0.0,225
mp-1112364,Cs3GdCl6,-2.344684011749998,0.029462756750000003,3.1365,True,FM,7.0000709,225
mp-1206492,Cs3HoCl6,-2.480853079396551,0.046845665499997004,4.7232,False,NM,0.00022,225
mp-1112651,Cs3InBr6,-1.7254261675632132,0.0012132195000030001,2.6733000000000002,False,NM,0.0,225
mp-1112991,Cs3InCl6,-1.879228522000016,0.020726505499984,3.7106,False,NM,0.0002163,225
mp-1112970,Cs3InF6,-2.930455700999999,0.0,5.3129,False,NM,0.0,225
mp-1112969,Cs3InI6,-1.308575114563219,0.07824076775000101,1.6049,False,NM,0.0017365,225
mp-1112652,Cs3LaCl6,-2.372618786749998,0.05730180475001401,4.7152,False,NM,0.0014081,225
mp-1113156,Cs3PdF6,-2.396905287500002,0.043455626749988006,0.0,True,FM,1.0003089,225
mp-1112362,Cs3PrCl6,-2.450184421063219,0.054820592999995005,4.7154,False,NM,0.00048439999999900005,225
mp-1206084,Cs3PrF6,-3.410153749166667,0.083389214,5.5517,False,NM,0.0,225
mp-669364,Cs3Re3(SI)4,-1.236948106533252,0.0,2.4339,False,NM,0.003300699999999,225
mp-10378,Cs3Sb,-0.500301612499999,0.0,0.6126,False,NM,0.0,225
mp-1112952,Cs3SbBr6,-1.640232474896552,0.0552753605,2.8535,False,NM,0.0,225
mp-1112353,Cs3SbCl6,-1.901275257896551,0.045449719999997,3.4949,False,NM,0.0,225
mp-1112602,Cs3SbF6,-2.842907090896552,0.056685005000002,3.8678999999999992,False,NM,0.00013529999999900002,225
mp-1112968,Cs3SbI6,-1.254157533896552,0.069153977000001,2.4187,False,NM,0.0013667,225
mp-1112351,Cs3ScBr6,-2.091842811396552,0.041936545999999006,3.3137,False,NM,6.0300000000000016e-05,225
mp-1112350,Cs3ScCl6,-2.298997727249994,0.037383894999997,4.0753,False,NM,0.000278,225
mp-1112965,Cs3ScF6,-3.5019340905,0.013341153500000001,6.3471,False,NM,0.0,225
mp-1113076,Cs3ScI6,-1.624866260396552,0.001999713499997,2.4426,False,NM,0.0,225
mp-1112348,Cs3SmCl6,-2.329584442500001,0.049852737000016,4.7485,False,NM,0.0,225
mp-1112345,Cs3TbCl6,-2.349155768499997,0.045883177499998005,4.7635000000000005,False,NM,0.0,225
mp-696965,Cs3TbF6,-3.508558099000001,0.0,5.745,False,NM,0.0,225
mp-1112963,Cs3TiF6,-3.258918559229883,0.0,0.0,True,FM,0.999999899999999,225
mp-1112647,Cs3TlBr6,-1.578036252229886,0.056344044249999004,1.6915,False,NM,9.220000000000003e-05,225
mp-1112344,Cs3TlCl6,-1.828544490229886,0.0361843705,2.5305,False,NM,0.0012583,225
mp-1113152,Cs3TlF6,-2.595313336000001,0.0,3.6388,False,NM,0.0,225
mp-1112949,Cs3TlI6,-1.196527383229886,0.11376775074999901,0.8173,False,NM,0.0011403,225
mp-1112342,Cs3TmCl6,-2.372692741249997,0.025160861250000003,4.7921,False,NM,0.0006855,225
mp-1206041,Cs3VF6,-3.104529692,0.0,3.1001,True,FM,1.999999299999999,225
mp-1112645,Cs3YBr6,-2.154735999896552,0.031921019499996005,4.0619,False,NM,0.0019108999999990002,225
mp-1112341,Cs3YCl6,-2.367006964249998,0.027340270249998,4.7509999999999994,False,NM,0.0019337,225
mp-1113151,Cs3YF6,-3.5111850959999993,0.0,5.9892,False,NM,0.0,225
mp-1112962,Cs3YI6,-1.6910098568965521,0.030864094000001,3.3564,False,NM,0.0014732,225
mp-863760,CsAcTe2,-1.466690679375005,0.188869338749995,0.8775000000000001,False,NM,0.0,225
mp-1060982,CsB,2.1456535114511492,2.1456535114511492,0.0,True,FM,1.9844447,225
mp-1225884,CsBH4,-0.45635162624999903,0.0,5.7194,False,NM,0.0,216
mp-1183948,CsBa3,0.165976477586206,0.165976477586206,0.0,False,NM,0.5524973,225
mp-571222,CsBr,-2.046601577327585,0.005111849999998,4.2575,False,NM,0.0,225
mp-1183935,CsCa3,0.260058745517241,0.260058745517241,0.0,False,NM,0.1624617,225
mp-573697,CsCl,-2.164455996249998,0.007141250000000001,4.8482,False,NM,0.0,225
mp-546711,CsClO4,-1.088036674525862,0.015998303333333002,5.3228,False,NM,0.0,216
mp-1185569,CsEu3,0.271976505517237,0.271976505517237,0.0,True,FM,22.7268207,225
mp-1784,CsF,-2.833271874999999,0.0,5.2626,False,NM,0.0,225
mp-1192997,CsFeP(H6O5)2,-1.60041453397192,0.0,4.6479,True,FM,4.0001143,216
mp-1057286,CsH,-0.24759755437499803,0.0,2.3475,False,NM,0.0,225
mp-614603,CsI,-1.729146057327588,0.0,3.8556,False,NM,5e-07,225
mp-1232361,CsIn(Cu3O4)2,-1.105328966020115,0.080235200781249,0.0,False,NM,0.0147777,225
mp-1112338,CsInBr3,-1.546272448264368,0.0,1.3782,False,NM,0.0,225
mp-1112961,CsInCl3,-1.643319195499998,0.014203413666621001,1.7756999999999992,False,NM,0.0,225
mp-1112960,CsInF3,-2.704585844999999,0.012654256500006001,3.060899999999999,False,NM,0.0,225
mp-1112643,CsInI3,-1.1496394762643671,0.021831326250001,0.056499999999999,False,NM,0.0005538,225
mp-1112328,CsK2AlBr6,-1.724880192415517,0.170327096999999,3.2759,False,NM,0.0002735,225
mp-1112327,CsK2AlCl6,-2.072619832415517,0.155026572749999,4.3064,False,NM,0.0,225
mp-1112319,CsK2AlF6,-3.319671709415517,0.102502405499999,5.617900000000001,False,NM,0.000326499999999,225
mp-1112057,CsK2AlI6,-1.248823902415517,0.14708670174999802,2.1419,False,NM,0.0019341,225
mp-1183938,CsK2As,-0.239563057913793,0.034550998888889004,0.708199999999999,False,NM,0.0007503999999990001,225
mp-1112325,CsK2AsBr6,-1.4520213431655171,0.11475869975000201,2.9226,False,NM,0.002750599999999,225
mp-1112054,CsK2AsCl6,-1.712026125165517,0.13839062641666902,3.4978,False,NM,0.0,225
mp-1112326,CsK2AsF6,-2.668328153165517,0.13263075300000302,3.5457,False,NM,0.0007306999999990001,225
mp-1112322,CsK2AuF6,-2.209982249415517,0.191784018999998,0.696199999999999,True,FM,1.9990674,225
mp-863759,CsK2Bi,-0.5110704906250021,0.0,0.30099999999999905,False,NM,0.0,225
mp-1112321,CsK2GaCl6,-1.8865921271655162,0.17565772974999902,3.6673,False,NM,0.0003854,225
mp-1112316,CsK2GaF6,-2.956793016165517,0.10164895800000001,5.3211,False,NM,0.0,225
mp-1112318,CsK2InCl6,-1.904217944082184,0.121910204249997,3.7817,False,NM,0.0003849,225
mp-1112317,CsK2InF6,-2.871217322082183,0.128013096750001,4.7905,False,NM,0.0,225
mp-1112315,CsK2IrF6,-2.424780316415517,0.126511539,2.017699999999999,False,NM,0.0011109,225
mp-1112308,CsK2MoF6,-2.842407379415517,0.11399831500000401,2.8022,True,FM,2.9994882,225
mp-1111974,CsK2NbF6,-2.8702571534155172,0.19948065815000002,0.0,True,FM,1.9702000000000002,225
mp-1112304,CsK2PdF6,-2.369593586415517,0.14588015199999502,0.0,True,FM,1.0002768,225
mp-1185542,CsK2Rb,0.040403377086206005,0.040403377086206005,0.0,False,NM,0.004350199999999,225
mp-1112313,CsK2RuF6,-2.496697623415516,0.106980266,1.6600000000000001,True,FM,1.0032039,225
mp-581024,CsK2Sb,-0.556562996875001,0.0,0.8633999999999991,False,NM,0.0,225
mp-1112055,CsK2SbCl6,-1.790849352415517,0.14021580258333702,3.1654,False,NM,0.013578,225
mp-1112270,CsK2SbF6,-2.751660770415517,0.16714867824999702,3.1372,False,NM,0.0,225
mp-1112309,CsK2ScCl6,-2.313783583915517,0.12102761587500001,4.0703,False,NM,0.0,225
mp-1110639,CsK2ScF6,-3.441292583915518,0.115103820083332,5.6381,False,NM,9.87e-05,225
mp-1112268,CsK2TaF6,-2.83214702514885,0.307396012106665,0.0,True,FM,1.5345031,225
mp-1112052,CsK2TiF6,-3.18084495174885,0.11990992700000501,0.0,True,FM,0.987344999999999,225
mp-1111971,CsK2TlF6,-2.58093600174885,0.134073394875005,3.583999999999999,False,NM,0.007066299999999,225
mp-1112254,CsK2VF6,-2.958520357415517,0.1760257989375,0.0,True,FM,1.9996919,225
mp-1112240,CsK2YF6,-3.432307082415517,0.148563317999998,5.2336,False,NM,0.0002673,225
mp-1185554,CsK3,0.018123157187499,0.018123157187499,0.0,False,NM,6e-07,225
mp-1183953,CsKRb2,0.033288284523706003,0.033288284523706003,0.0,False,NM,0.0029665,225
mp-1213008,CsLi2C,1.319436652169539,1.330872397158764,0.0,True,FM,1.0008182,225
mp-551629,CsLiMoO4,-2.260392497569788,0.0,4.4239999999999995,False,NM,0.0,216
mp-1213043,CsMgAs(H3O2)2,0.202437519257294,1.653951723159333,0.0,False,NM,1.9177913,216
mp-1193046,CsMgAs(H6O5)2,-1.585909122686207,0.0,4.2896,False,NM,0.0,216
mp-761178,CsMgP(H6O5)2,-1.7377526885719212,0.0,4.8246,False,NM,0.0005071,216
mp-863692,CsMn(CN)3,-0.286343020948276,0.022140287968749003,0.0,True,FM,1.997872699999999,225
mp-505752,CsMnCr(CN)6,-0.058253456505747,0.236595262777779,0.0,True,FiM,1.999962099999999,216
mp-1185541,CsNa3,0.082453650603447,0.082453650603447,0.0,False,NM,0.0008973999999990001,225
mp-1184047,CsNp3,1.917266966454747,1.917266966454747,0.0,True,FM,11.0319122,225
mp-1111785,CsRb2AlBr6,-1.7746722194655171,0.12469273199999902,3.3324,False,NM,0.0005545999999990001,225
mp-1111710,CsRb2AlCl6,-2.120574464465517,0.105921404749999,4.4662,False,NM,0.000101,225
mp-1111045,CsRb2AlF6,-3.354795068465518,0.035738496333336006,5.8323,False,NM,0.0006318,225
mp-1111837,CsRb2AlI6,-1.300768406465517,0.105486661749999,2.1135,False,NM,0.0017609,225
mp-1111784,CsRb2AsBr6,-1.5041736932155172,0.061757834250002,2.923499999999999,False,NM,0.002829,225
mp-1111709,CsRb2AsCl6,-1.763419437215517,0.085846778416667,3.5025,False,NM,0.0017426,225
mp-1111463,CsRb2AsF6,-2.712054949215517,0.068545293000001,3.8491,False,NM,0.002271699999999,225
mp-1111832,CsRb2AsI6,-1.125804938215517,0.089821709499999,2.3568,False,NM,0.003589799999999,225
mp-1111783,CsRb2AuBr6,-1.310372627465517,0.18171255050000001,0.0,True,FM,1.9984339,225
mp-1113412,CsRb2AuCl6,-1.526740434465517,0.18562218899999802,0.17220000000000002,True,FM,1.9966692,225
mp-1111462,CsRb2AuF6,-2.255948434465517,0.127703341999996,0.660799999999999,True,FM,1.9986844,225
mp-1185546,CsRb2Bi,-0.30295877366379403,0.0012468116666650001,0.1872,False,NM,0.0,225
mp-1111460,CsRb2BiF6,-2.832653291465517,0.06634091874999701,4.1231,False,NM,0.0,225
mp-1111397,CsRb2CoF6,-2.651282422465518,0.017315477000015,3.2035,False,NM,8.4e-06,225
mp-1113428,CsRb2DyCl6,-2.423644735632183,0.081811355083338,4.4376,False,NM,0.007339,225
mp-1111782,CsRb2ErCl6,-2.427862759465517,0.08589932716666401,4.4266,False,NM,0.0,225
mp-1111396,CsRb2FeF6,-2.832430517465517,0.081897776000005,4.1741,True,FM,4.9997891,225
mp-1111781,CsRb2GaBr6,-1.631824409215517,0.146796060749999,2.3569,False,NM,0.001249699999999,225
mp-1111708,CsRb2GaCl6,-1.935375905215517,0.125723415749998,3.35,False,NM,0.0003723,225
mp-989629,CsRb2GaF6,-2.9955569472155172,0.049867575000000004,5.539300000000001,False,NM,0.0002644,225