material_id,formula,formation_energy,ehull,band_gap,is_magnetic,magnetic_ordering,total_magnetization,spacegroup
mp-1114118,Rb2NaInI6,-1.237574597304597,0.076963317666664,0.6818000000000001,False,NM,0.0006349999999990001,225
mp-1113675,Rb2NaIrF6,-2.5513636096379297,0.0,2.3345000000000002,False,NM,9.550000000000003e-05,225
mp-1114018,Rb2NaLaCl6,-2.466887044137931,0.03885780825,4.6431000000000004,False,NM,0.0012775,225
mp-1113676,Rb2NaMnF6,-2.941786795431034,0.043522676999999,0.0,True,FM,4.000008,225
mp-1110703,Rb2NaMoBr6,-1.551942168637931,0.045588960458331,1.4757,True,FM,2.9978151,225
mp-1110678,Rb2NaMoCl6,-1.87695594963793,0.012174970000002,1.622399999999999,True,FM,2.9988623,225
mp-560963,Rb2NaMoF6,-2.980085377637931,0.0,4.1434,True,FM,2.9999925,225
mp-1110741,Rb2NaMoI6,-1.109042959637931,0.09747878058333401,1.0856,True,FM,2.9982729,225
mp-1113673,Rb2NaNbF6,-3.008042601637931,0.048742054749999,0.0,True,FM,1.9999635,225
mp-1110740,Rb2NaNdBr6,-2.105838652387931,0.032343341499999005,4.0334,False,NM,0.0007097,225
mp-1110702,Rb2NaNdCl6,-2.43478969938793,0.0280156475,5.003,False,NM,0.0002383,225
mp-1110646,Rb2NaNdF6,-3.511915733387931,0.021372054000001,6.2143,False,NM,0.0005453,225
mp-1110770,Rb2NaNdI6,-1.63030872738793,0.0414918135,3.1233,False,NM,0.0017835,225
mp-556353,Rb2NaNiF6,-2.6067016406379313,0.0030640355000020004,0.0,True,FM,1.0000311,225
mp-989569,Rb2NaPbF6,-2.76065953163793,0.0,0.0,True,FM,0.8751046,225
mp-1113670,Rb2NaPdF6,-2.49390292463793,0.010632021999999,0.0,True,FM,0.9999614,225
mp-1110739,Rb2NaPrBr6,-2.100951976804597,0.038559097000001,4.0373,False,NM,0.0007118,225
mp-1110701,Rb2NaPrCl6,-2.427235913804597,0.036138179499999,4.9807000000000015,False,NM,0.00022559999999900002,225
mp-1110663,Rb2NaPrF6,-3.494609592804598,0.03359682,6.1649,False,NM,0.0005926,225
mp-1110769,Rb2NaPrI6,-1.628247420804597,0.04711534975000101,3.112,False,NM,0.0017729,225
mp-14038,Rb2NaRhF6,-2.63831338763793,0.0,1.957,False,NM,0.0001423,225
mp-1113668,Rb2NaRuF6,-2.62628438263793,0.0,0.0,True,FM,1.0003754,225
mp-1110700,Rb2NaSbBr6,-1.59448837963793,0.031378415750005,2.5605,False,NM,0.0023119,225
mp-989545,Rb2NaSbCl6,-1.87563242763793,0.0,3.052499999999999,False,NM,0.0006627,225
mp-989541,Rb2NaSbF6,-2.88326380363793,0.0,4.124899999999999,False,NM,0.0004115,225
mp-1110768,Rb2NaSbI6,-1.187284405637931,0.05228740750000101,1.8884,False,NM,0.0038314,225
mp-1114016,Rb2NaScBr6,-2.05306927813793,0.007340720500000001,3.1115,False,NM,0.000980599999999,225
mp-1113963,Rb2NaScCl6,-2.401621242137931,0.0,3.9108,False,NM,0.0,225
mp-1113669,Rb2NaScF6,-3.57439819013793,0.0,6.9076,False,NM,2.09e-05,225
mp-1114119,Rb2NaScI6,-1.561588831137932,0.0,2.2079,False,NM,0.0,225
mp-1114014,Rb2NaSmCl6,-2.44517877713793,0.015376247000000001,5.072599999999999,False,NM,0.0002216,225
mp-1206690,Rb2NaSmF6,-3.538864388137931,0.0,6.3067,False,NM,0.0004655,225
mp-1110698,Rb2NaTaBr6,-1.582007779371264,0.123220173725002,0.0,True,FM,1.9985917,225
mp-1110677,Rb2NaTaCl6,-1.9193320653712642,0.11176552369999801,0.0,True,FM,1.999434299999999,225
mp-1110644,Rb2NaTaF6,-2.942962404371264,0.20415458450666402,0.0,True,FM,1.9997863999999992,225
mp-1110738,Rb2NaTaI6,-1.123851365371264,0.14445950771875202,0.0,True,FM,1.9980224,225
mp-1114015,Rb2NaTbCl6,-2.459523704304597,0.00027913494999900004,5.1216,False,NM,0.0003825,225
mp-1205542,Rb2NaTbF6,-3.577728421304597,0.0,6.4622,False,NM,0.0003158,225
mp-15626,Rb2NaTiF6,-3.3105537079712652,0.0,0.0,True,FM,1.0003002,225
mp-1114011,Rb2NaTlBr6,-1.528904055971265,0.0,1.0102,False,NM,0.0002038,225
mp-989563,Rb2NaTlCl6,-1.799518091971264,0.008229163000001,1.8121,False,NM,0.0002108,225
mp-989548,Rb2NaTlF6,-2.714412728971265,0.0,3.6281,False,NM,0.0004187,225
mp-1114173,Rb2NaTlI6,-1.127913951971265,0.10413867650000001,0.0,False,NM,0.006174499999999,225
mp-567498,Rb2NaTmCl6,-2.466064262637931,0.0,5.0572,False,NM,0.0,225
mp-1206768,Rb2NaVCl6,-2.025616352637931,0.0,0.0,True,FM,2.0019501,225
mp-560671,Rb2NaVF6,-3.166100738637932,0.0,0.0,True,FM,1.9999991,225
mp-1110697,Rb2NaYBr6,-2.114813816637931,0.0,4.191800000000001,False,NM,0.0007400999999990001,225
mp-1110696,Rb2NaYCl6,-2.45517472363793,0.0,5.1042,False,NM,0.0001266,225
mp-13926,Rb2NaYF6,-3.56894743563793,0.0,6.447599999999999,False,NM,0.0,225
mp-1110767,Rb2NaYI6,-1.6280083946379311,0.024726584999998,3.1384,False,NM,0.0019192999999990002,225
mp-1205802,Rb2NaYbF6,-3.625714126750002,0.0,0.0,False,NM,0.0,225
mp-1110605,Rb2NbAgF6,-2.620458913666666,0.29141262983333205,0.0,True,FM,2.0007032,225
mp-1111465,Rb2NbAuF6,-2.6124163255,0.299455217999997,0.1361,False,NM,0.0118862,225
mp-571513,Rb2NbCl6,-2.008327181666669,0.013245785555555,0.0,True,FM,0.999999899999999,225
mp-1111031,Rb2NbCuF6,-2.5835610415,0.328310501999998,0.0,True,FM,2.0000463,225
mp-1113939,Rb2NbHgF6,-2.78203362675,0.129837916749997,0.0,True,FM,0.997732699999999,225
mp-1113860,Rb2NbTlF6,-2.756959360833334,0.154912182666666,0.0,True,FM,1.999990299999999,225
mp-1110807,Rb2NdAgBr6,-1.852370581416666,0.050721213499998,3.3063000000000002,False,NM,0.001031,225
mp-1110806,Rb2NdAgCl6,-2.153734668416666,0.034805226500004005,3.6549,False,NM,0.0004431,225
mp-1110789,Rb2NdAgF6,-3.130812890416666,0.065210615833334,2.848,False,NM,0.0,225
mp-1110824,Rb2NdAgI6,-1.413274834416666,0.062069203499996006,2.552399999999999,False,NM,0.0001152,225
mp-1113660,Rb2NdAuCl6,-2.016020950249999,0.136931379916668,2.2412,False,NM,0.0006424,225
mp-1110721,Rb2NdCuBr6,-1.8045636302499992,0.070126401500001,2.2883,False,NM,0.000482799999999,225
mp-1110688,Rb2NdCuCl6,-2.11429895525,0.066024098500001,2.4344,False,NM,0.0022898,225
mp-1110660,Rb2NdCuF6,-3.08967114525,0.162257656000001,0.691199999999999,False,NM,0.0,225
mp-1110764,Rb2NdCuI6,-1.355390682249999,0.095084969666666,1.811599999999999,False,NM,0.0018449999999990002,225
mp-1110604,Rb2NiAgF6,-2.336377894666666,0.036363240500000005,0.0,True,FiM,1.0001348,225
mp-1110586,Rb2NiAuF6,-2.2117716575,0.12066537299999201,0.0,True,FiM,0.999081,225
mp-556417,Rb2NiF6,-2.389794803888885,0.0,2.421599999999999,False,NM,0.0,225
mp-1394,Rb2O,-1.129998786666666,0.0031695866666660005,1.3192,False,NM,0.0,225
mp-1209332,Rb2O2,-0.8987541212500001,0.33423944,0.0,True,FM,1.0000261,225
mp-23475,Rb2PbCl6,-1.706264286111111,0.0,1.2605,False,NM,0.0,225
mp-1062711,Rb2Pd,0.10038643833333301,0.10038643833333301,0.5281,False,NM,3.33e-05,225
mp-1110585,Rb2PdAuF6,-2.028620010499999,0.132645081,0.0,False,NM,0.0019693,225
mp-28084,Rb2PdBr6,-1.339372843888891,0.0,0.547899999999999,False,NM,0.0,225
mp-28145,Rb2PdCl6,-1.575052817222221,0.0,1.2868,False,NM,0.0,225
mp-14088,Rb2PdF6,-2.401405657222222,0.0,2.2306,False,NM,0.0,225
mp-628606,Rb2PdI6,-1.005111946111111,0.016795287222221,0.0,False,NM,0.0009793,225
mp-1110818,Rb2PrAgBr6,-1.848100200833332,0.05632067400000101,3.2758,False,NM,0.001027299999999,225
mp-1110805,Rb2PrAgCl6,-2.146478773833332,0.042629867500003006,3.6461,False,NM,0.0004191,225
mp-1110788,Rb2PrAgF6,-3.113763317833332,0.07717881383333401,2.6788,False,NM,0.0011989,225
mp-1110823,Rb2PrAgI6,-1.411647319833333,0.06725894774999701,2.5438,False,NM,0.0022416,225
mp-1113464,Rb2PrAuCl6,-2.008961528666666,0.14503434238888702,2.2207,False,NM,0.0005578,225
mp-1110720,Rb2PrCuBr6,-1.800356482666666,0.07566262900000001,1.9411,False,NM,0.000548,225
mp-1110687,Rb2PrCuCl6,-2.107309043666666,0.07358275650000401,2.3461,False,NM,0.0023268,225
mp-1113802,Rb2PrCuF6,-3.072874017666666,0.17397340900000002,0.6482999999999991,False,NM,0.0001252,225
mp-1110763,Rb2PrCuI6,-1.354138955666666,0.099898925916667,1.7961,False,NM,0.00201,225
mp-23350,Rb2PtCl6,-1.635688618333331,0.0,1.9459,False,NM,0.0,225
mp-28110,Rb2PtI6,-1.033037743888887,0.0,0.520999999999999,False,NM,0.0,225
mp-1110584,Rb2RhAuF6,-2.0848745765,0.15786944800000002,0.43270000000000003,False,NM,0.0009766,225
mp-1110583,Rb2RuAuF6,-2.0575823095,0.21293365300000003,0.0,True,FM,1.0035151,225
mp-8041,Rb2S,-1.160750764166667,0.0,1.9632,False,NM,0.0,225
mp-989518,Rb2SBrCl6,-1.16344676575,0.067874628906249,0.0,False,NM,0.0716161,225
mp-989388,Rb2SCl6F,-0.93863103875,0.47160435926909705,0.0,False,NM,0.3193775,225
mp-1111716,Rb2SbAuBr6,-1.274948300499999,0.077345171,0.0,False,NM,0.0013007,225
mp-1111715,Rb2SbAuCl6,-1.500795139499999,0.072393966999996,0.377499999999999,False,NM,0.0007574,225
mp-1111402,Rb2SbAuF6,-2.3409232105,0.251335428375,0.7453999999999991,False,NM,0.0007836,225
mp-1111790,Rb2SbAuI6,-0.9391753015000001,0.06831562824999901,0.0,False,NM,0.0004073,225
mp-866668,Rb2SbBr6,-1.4896003472222221,0.0,0.0,False,NM,2.499999999999999e-06,225
mp-1207160,Rb2SbCl6,-1.747987896111105,0.0,0.0,False,NM,0.00022689999999900003,225
mp-1111726,Rb2ScAgBr6,-1.799523226166666,0.026484421312502,2.8737999999999992,False,NM,0.002878,225
mp-1110795,Rb2ScAgCl6,-2.120679242166666,0.0,3.2973,False,NM,0.0006546,225
mp-1110600,Rb2ScAgF6,-3.194765403166666,0.0,3.2846,False,NM,8.880000000000003e-05,225
mp-1111799,Rb2ScAgI6,-1.343710374166666,0.019905862250000003,2.1449,False,NM,0.0020929,225
mp-1111714,Rb2ScAuBr6,-1.682009017,0.10482765775000001,1.7436,False,NM,0.001567499999999,225
mp-1111620,Rb2ScAuCl6,-1.9843116790000002,0.0715474172,2.0443,False,NM,0.0005826,225
mp-1110582,Rb2ScAuF6,-3.009116091,0.151210174000001,1.6982,False,NM,5.22e-05,225
mp-1111788,Rb2ScAuI6,-1.252791744999999,0.07285437424999901,1.138399999999999,False,NM,0.008328499999999,225
mp-1113560,Rb2ScCuCl6,-2.079400378,0.006490811699999001,1.8951,False,NM,0.0010945,225
mp-1113796,Rb2ScCuF6,-3.151056795999999,0.07973400700000101,1.479,False,NM,1.48e-05,225
mp-1113386,Rb2ScHgBr6,-1.725265643250001,0.105949284,0.0,False,NM,0.0052778,225
mp-1113387,Rb2ScHgCl6,-2.026472031250001,0.080529243499997,0.0,True,FM,0.701649499999999,225
mp-1111002,Rb2ScHgF6,-3.10664248325,0.12248643950000201,0.0,True,FM,0.9972264,225
mp-1113502,Rb2ScHgI6,-1.28957489125,0.0668569695,0.0,False,NM,0.6602346,225
mp-1114132,Rb2ScInBr6,-1.848960110666666,0.031397746499999005,2.4052,False,NM,0.0009702,225
mp-1114049,Rb2ScInCl6,-2.168427678666666,0.0,2.6355,False,NM,0.0,225
mp-1113896,Rb2ScInF6,-3.293990089666666,0.037831637888893,3.844699999999999,False,NM,0.00022889999999900002,225
mp-1114188,Rb2ScInI6,-1.391071834666666,0.007130817,2.0229,False,NM,0.0010133,225
mp-1114111,Rb2ScTlBr6,-1.8871704093333341,0.036429553,3.0758,False,NM,0.015458399999999001,225
mp-1114003,Rb2ScTlCl6,-2.208681938333334,0.0,3.4475,False,NM,0.0004994,225
mp-1113855,Rb2ScTlF6,-3.326228318333334,0.012141578499999,4.9059,False,NM,0.000102699999999,225
mp-1114163,Rb2ScTlI6,-1.427644711333334,0.013302731500000001,2.3969,False,NM,0.0006420999999990001,225
mp-11327,Rb2Se,-1.207288049114582,0.0,1.7968000000000002,False,NM,0.0,225
mp-27829,Rb2SeCl6,-1.534144714149305,0.0,2.6051,False,NM,0.0,225
mp-10492,Rb2SiF6,-3.432261107222219,0.0,6.9955,False,NM,0.0,225
mp-1111725,Rb2SmAgCl6,-2.163506613166666,0.022782959000003003,3.7291,False,NM,0.0011476,225
mp-1113640,Rb2SmAuCl6,-2.025409937,0.11982220533333701,2.2894,False,NM,0.0007373999999990001,225
mp-1112430,Rb2SmCuCl6,-2.123311536,0.054761195000000006,2.569499999999999,False,NM,0.002262799999999,225
mp-569028,Rb2SnBr6,-1.5713690522222201,0.0,1.3166,False,NM,0.0,225
mp-23059,Rb2SnCl6,-1.8884658099999991,0.0,2.5452,False,NM,0.0,225
mp-1206039,Rb2SnF6,-2.9952885133333274,0.036308327777772,5.3825,False,NM,0.0,225
mp-27635,Rb2SnI6,-1.115195106666668,0.014823019166664002,0.1288,False,NM,7e-07,225
mp-1110802,Rb2TaAgBr6,-1.323352997399999,0.167478043133333,0.0,True,FM,1.9979864999999992,225
mp-1110794,Rb2TaAgCl6,-1.6324497973999992,0.20022063518333602,0.0,True,FM,1.9996375999999991,225
mp-1111828,Rb2TaAgF6,-2.699211225399999,0.33310342808666904,0.286699999999999,False,NM,0.0007255,225
mp-1111827,Rb2TaAgI6,-0.9023552963999991,0.17184481046875003,0.0,True,FM,1.998609699999999,225
mp-1111046,Rb2TaAuF6,-2.751740552233333,0.283295597583668,1.164,False,NM,0.0007488999999990001,225
mp-1113344,Rb2TaCuBr6,-1.271575133233332,0.21925590729999803,0.0,True,FM,1.9992182,225
mp-1113948,Rb2TaCuCl6,-1.589300270233332,0.24337016235000303,0.0,True,FM,1.999163499999999,225
mp-1113790,Rb2TaCuF6,-2.516365576233333,0.515949077253335,0.0,True,FM,1.9123853,225
mp-1110718,Rb2TaCuI6,-0.8413938472333331,0.21753735817187503,0.0,True,FM,1.992871399999999,225
mp-1113934,Rb2TaHgF6,-2.8179590194833333,0.21447998210909103,0.0,True,FM,1.0000825,225
mp-1113852,Rb2TaTlF6,-2.702851017566667,0.329463635919997,0.0,True,FM,2.0007867,225
mp-1111724,Rb2TbAgCl6,-2.176792811333333,0.008744575949998001,3.7266,False,NM,0.00021109999999900002,225
mp-1113641,Rb2TbAuCl6,-2.038038047166666,0.114765728766667,2.2107,False,NM,0.0003074,225
mp-1112416,Rb2TbCuCl6,-2.135208446166666,0.044782863109999,2.5313,False,NM,8.310000000000001e-05,225
mp-1209302,Rb2TcCl6,-1.764420612222219,0.0,1.2635,True,FM,2.9999998,225
mp-1206836,Rb2TcI6,-0.99440060333333,0.0,0.544999999999999,True,FM,3.0000001,225
mp-441,Rb2Te,-1.1377736438888881,0.0,1.8766,False,NM,0.0,225
mp-23383,Rb2TeBr6,-1.41372741685185,0.0007570333333320001,2.0509,False,NM,0.0,225
mp-22975,Rb2TeCl6,-1.681574540185184,0.0,2.6398,False,NM,0.0,225
mp-1110599,Rb2TiAgF6,-2.929266637,0.19154280849999603,0.0,True,FM,0.9994506,225
mp-1111401,Rb2TiAuF6,-2.846980579833333,0.27382886566667003,0.029,True,FM,1.0047777,225
mp-27827,Rb2TiCl6,-2.212134663148147,0.0,2.1471,False,NM,0.0,225
mp-1113935,Rb2TiHgF6,-3.086033571083334,0.034775874416666006,2.3262,False,NM,1.9900000000000003e-05,225
mp-1113853,Rb2TiTlF6,-3.063451584166667,0.074613819185183,0.0,True,FM,1.0000904,225
mp-1111723,Rb2TlAgBr6,-1.312936539,0.00010816387500000001,0.0,False,NM,0.0022918,225
mp-1111629,Rb2TlAgCl6,-1.546812579,0.0,0.0,False,NM,3.6400000000000004e-05,225
mp-1110598,Rb2TlAgF6,-2.345675436,0.0,0.5523,False,NM,1.4700000000000002e-05,225
mp-1111798,Rb2TlAgI6,-0.9637666960000001,0.07300229787499801,0.0,False,NM,0.0005423,225
mp-1114116,Rb2TlAsBr6,-1.374339472583334,0.011424803,1.1412,False,NM,0.0010019,225
mp-1114009,Rb2TlAsCl6,-1.622903490583333,0.010121739749999002,1.9544000000000001,False,NM,0.0006902999999990001,225
mp-1113873,Rb2TlAsF6,-2.559564940583333,0.0,2.7163,False,NM,0.0008853,225
mp-1114168,Rb2TlAsI6,-1.008219640583334,0.034806718499998,0.9147999999999991,False,NM,5.7400000000000006e-05,225
mp-1111713,Rb2TlAuBr6,-1.2566751708333341,0.050805109499998,0.0,False,NM,0.013100299999999001,225
mp-1111611,Rb2TlAuCl6,-1.460108712833335,0.061831331249998005,0.0,False,NM,1.18e-05,225
mp-1111400,Rb2TlAuF6,-2.175908921833334,0.125236061499999,0.0,False,NM,0.0050694,225
mp-1111787,Rb2TlAuI6,-0.940619578833334,0.072042244249999,0.0,False,NM,0.0025632,225
mp-1114114,Rb2TlBiBr6,-1.495697822833333,0.045726620874998,1.6711,False,NM,0.000881,225
mp-1113927,Rb2TlBiF6,-2.676157918833334,0.029271196250000003,3.3382,False,NM,0.0022244,225
mp-1113650,Rb2TlCoF6,-2.473937786833334,0.07589037449999801,2.0341,False,NM,0.00015649999999900002,225
mp-1113651,Rb2TlCrF6,-2.8727816048333343,0.001023638000003,4.1503,True,FM,2.9999557,225
mp-1111484,Rb2TlCuBr6,-1.305266993833333,0.010593350875000001,0.0,False,NM,0.011173299999999001,225
mp-1111482,Rb2TlCuCl6,-1.5492221238333341,0.024180422364586,0.0,False,NM,0.0026344,225
mp-1113791,Rb2TlCuF6,-2.389293845833334,0.019120111999995002,0.0,True,FM,0.2244464,225
mp-1113644,Rb2TlFeF6,-2.679314555833333,0.031354229999999005,2.9912,True,FM,4.9998439999999995,225
mp-1114007,Rb2TlGaBr6,-1.492151208583334,0.09056502649999801,1.6518000000000002,False,NM,0.0020141,225
mp-1114004,Rb2TlGaCl6,-1.783494178583334,0.076422188999997,2.5867,False,NM,0.0004971,225
mp-989565,Rb2TlGaF6,-2.835232728583334,0.0,4.4038,False,NM,0.0008221,225
mp-1114169,Rb2TlGaI6,-1.074595677583334,0.11365144950000101,1.0849,False,NM,0.0012014,225
mp-1114086,Rb2TlHgBr6,-1.335001944083334,0.027816899375002,0.0,False,NM,0.000641,225
mp-1114077,Rb2TlHgCl6,-1.553892032083335,0.037733569450001,0.0,False,NM,0.001237,225
mp-1113908,Rb2TlHgF6,-2.327202730083335,0.037486954125002005,0.0,False,NM,3e-07,225
mp-1114194,Rb2TlHgI6,-0.9900418010833341,0.0761500418125,0.0,False,NM,0.0020319,225
mp-1114115,Rb2TlInBr6,-1.5276207525,0.039859327999999,1.8455,False,NM,5.43e-05,225
mp-989550,Rb2TlInCl6,-1.8027955545,0.0,2.3962,False,NM,1.15e-05,225
mp-989532,Rb2TlInF6,-2.7585047335,0.0,3.6593,False,NM,0.002870299999999,225
mp-1114166,Rb2TlInI6,-1.1217037525,0.076054602666665,0.8542000000000001,False,NM,0.0178107,225
mp-1113862,Rb2TlIrF6,-2.309065975833336,0.04607644218749601,2.2131,False,NM,0.0,225
mp-1113863,Rb2TlMoF6,-2.727277752833333,0.0,3.848499999999999,True,FM,2.9998226,225
mp-1113635,Rb2TlNiF6,-2.468352045833334,0.079655636499994,0.0,True,FiM,1.1161668,225
mp-1113632,Rb2TlPdF6,-2.290726270833333,0.039933331500001,0.0,True,FM,0.999968299999999,225
mp-1113861,Rb2TlRhF6,-2.402731809833334,0.0,1.9393,False,NM,0.0007917,225
mp-1113854,Rb2TlRuF6,-2.381742250833333,0.005247792416669001,0.0,True,FM,0.9997322,225
mp-1114113,Rb2TlSbBr6,-1.4478168138333332,0.041239945250005,1.1629,False,NM,0.0007547999999990001,225
mp-1114002,Rb2TlSbCl6,-1.699869768833334,0.0,1.955099999999999,False,NM,0.0008818,225
mp-1113924,Rb2TlSbF6,-2.644443887833334,0.031306053499999,2.807,False,NM,0.0014768,225
mp-1114167,Rb2TlSbI6,-1.072367770833334,0.050424482500001006,0.8683000000000001,False,NM,0.002230599999999,225
mp-1113849,Rb2TlVF6,-2.840599925833334,0.008416165750006002,0.0,True,FM,1.9998995,225
mp-1111628,Rb2TmAgCl6,-2.182204191666667,0.0,3.4255,False,NM,0.0009075999999990001,225
mp-1113450,Rb2TmAuCl6,-2.0427505335,0.10021131487500101,2.1063,False,NM,0.0005135,225
mp-1112412,Rb2TmCuCl6,-2.138892495500001,0.032943498249999,2.4353,False,NM,4.4000000000000006e-05,225
mp-567573,Rb2UBr6,-1.9366242044444442,0.001561134999999,0.0,True,FM,1.9999999,225
mp-1110597,Rb2VAgF6,-2.7065121456666663,0.088464761833333,0.0,True,FM,1.9999935,225
mp-1110581,Rb2VAuF6,-2.5200214915,0.274955416,0.0,True,FM,1.999761299999999,225
mp-1207222,Rb2VCl6,-1.955501719444444,0.0,0.0,True,FM,1.0000016,225
mp-1113787,Rb2VCuF6,-2.6840008875,0.11097601999999601,0.0,True,FiM,2.0000004,225
mp-1209267,Rb2VF6,-3.074937565,0.030592332222221002,0.0,True,FM,0.999999899999999,225
mp-1113932,Rb2VHgF6,-2.670305425750001,0.12467148174999901,0.0035999999999990003,True,FM,0.999896,225
mp-29481,Rb2WBr6,-1.430904369444443,0.0,0.0,True,FM,1.9999996,225
mp-30227,Rb2WCl6,-1.785055874999996,0.0,0.0,True,FM,2.0,225
mp-1110801,Rb2YAgBr6,-1.8592620886666662,0.008997185250002001,3.3104,False,NM,0.0002251,225
mp-1110800,Rb2YAgCl6,-2.172295242666666,0.007829865899997,3.8008,False,NM,0.00020329999999900002,225
mp-1110786,Rb2YAgF6,-3.186883124666669,0.0,2.8977,False,NM,0.0,225
mp-1110816,Rb2YAgI6,-1.408657044666666,0.04996716874999901,2.4884999999999993,False,NM,0.0030096,225
mp-1111712,Rb2YAuBr6,-1.7390334255000002,0.087991332249998,1.5649000000000002,False,NM,0.0005312,225
mp-1111711,Rb2YAuCl6,-2.0334613855,0.113160076116669,2.251299999999999,False,NM,0.00023879999999900002,225
mp-1111399,Rb2YAuF6,-3.001162570499999,0.15246099811111302,1.5261,False,NM,0.0,225
mp-1111786,Rb2YAuI6,-1.314804603499999,0.10584949274999901,1.1678,False,NM,0.0014888,225
mp-1112413,Rb2YCuBr6,-1.8092656325,0.035859775499999004,2.340499999999999,False,NM,0.000268599999999,225
mp-1110685,Rb2YCuCl6,-2.1307066575,0.042299687474995004,2.6201,False,NM,0.00019,225
mp-1110658,Rb2YCuF6,-3.144641709499999,0.08448403716666501,0.9337999999999991,False,NM,0.0002272,225
mp-1110761,Rb2YCuI6,-1.3486702405,0.082739850166666,1.7585000000000002,False,NM,0.0002679,225
mp-1114137,Rb2YHgBr6,-1.777718098749999,0.09368491150000001,0.0,True,FM,0.8676526,225
mp-1114078,Rb2YHgCl6,-2.07421931475,0.129628706899997,0.0,True,FM,0.8870538,225
mp-1113905,Rb2YHgF6,-3.10156680475,0.11583930708333101,0.0,True,FM,0.9946568,225
mp-1114193,Rb2YHgI6,-1.34709645975,0.10434337800000001,0.0,True,FM,0.6905146,225
mp-1114129,Rb2YInBr6,-1.903752233166666,0.016793706999999002,2.833199999999999,False,NM,0.0008234,225
mp-1114045,Rb2YInCl6,-2.216510208166666,0.041253007212500005,3.3242,False,NM,0.0008874999999990001,225
mp-1113931,Rb2YInF6,-3.289476153166666,0.045683107055554006,3.673,False,NM,0.000110599999999,225