material_id,formula,formation_energy,ehull,band_gap,is_magnetic,magnetic_ordering,total_magnetization,spacegroup
mp-864661,ZnCuPd2,-0.40425254999999904,0.0,0.0,False,NM,3e-07,225
mp-971739,ZnCuPt2,-0.359896827499998,0.002394867499997,0.0,False,NM,0.0,225
mp-1215623,ZnFe4CoO8,-1.656888559285714,0.006990043392857001,1.5231,True,FM,23.0000027,216
mp-1215616,ZnFe4NiO8,-1.626805588571429,0.041228001785713,0.0,True,FiM,18.0000001,216
mp-35033,ZnFe5O8,-1.684544337142855,0.009289728571423001,0.0,True,FM,24.0000002,216
mp-1207088,ZnFeBi,0.712960349999998,0.733773803888887,0.0,True,FM,2.8435644,216
mp-631270,ZnFePb,0.7816588900000011,0.8024723438888881,0.0,True,FM,2.790504099999999,216
mp-977361,ZnFeRh2,-0.276928189999999,0.0,0.0,True,FM,4.4160568,225
mp-20768,ZnFeSb,0.384010316666666,0.48282567055555303,0.0,True,FM,2.6900725,216
mp-1187911,ZnGaCo2,-0.07810857124999801,0.036304687386365005,0.0,False,NM,1.699999999999999e-06,225
mp-977356,ZnGaIr2,-0.42314370624999803,0.0,0.0,False,NM,2.299999999999998e-06,225
mp-1187935,ZnGaNi2,-0.33499710937499905,0.0,0.0,False,NM,3e-07,225
mp-977362,ZnGaRh2,-0.616016989374998,0.0,0.0,False,NM,2.499999999999999e-06,225
mp-1187920,ZnGeRh2,-0.517830203749998,0.0,0.0,False,NM,2e-07,225
mp-23998,ZnH12N4(ClO4)2,-0.629298998333333,0.476195491555554,4.336,False,NM,0.0015323,216
mp-971757,ZnHg3,0.12175626124999801,0.12175626124999801,0.0,False,NM,1.5200000000000002e-05,225
mp-1187954,ZnIn3,0.107041117499999,0.107041117499999,0.0,False,NM,0.004494199999999,225
mp-1187916,ZnInPd2,-0.513127646666665,0.020864187499999003,0.0,False,NM,1.1e-06,225
mp-1187922,ZnInRh2,-0.491777063749999,0.0,0.0,False,NM,1.58e-05,225
mp-999473,ZnN,0.5529283781249991,0.5886973806249991,0.0,False,NM,3e-07,225
mp-999485,ZnN,0.503238693124998,0.5390076956249991,0.0,True,FM,0.486160999999999,216
mp-567903,ZnNi,0.8277969100000001,1.082767445,0.0,False,NM,0.0072469,216
mp-16358,ZnNi2Ge,-0.23688176624999902,0.043090038124999,0.0,False,NM,9.03e-05,225
mp-11621,ZnNiSb,-0.295538423333332,0.0,0.0,False,NM,0.0,216
mp-1986,ZnO,-1.782830182499999,0.00806893,0.630899999999999,False,NM,0.0,216
mp-2229,ZnO,-1.6436317724999991,0.14726733999999903,0.7218999999999991,False,NM,0.0,225
mp-1207397,ZnOs2(NO2)4,0.246669147333333,1.384392236166666,0.0,True,FM,9.9966146,216
mp-1187949,ZnPb3,0.11069147749999701,0.11069147749999701,0.0,False,NM,0.0001345,225
mp-977383,ZnPd2Au,-0.33670066749999805,0.016720051250002,0.0,False,NM,1e-07,225
mp-1207449,ZnPt(CN)6,0.16676837999999902,0.24752318571428303,5.0577,False,NM,0.0204979,225
mp-1187921,ZnRu2W,-0.128180139999997,0.0,0.0,False,NM,2.8300000000000003e-05,225
mp-10695,ZnS,-0.9625521039062511,0.00014624571428500002,2.0192,False,NM,0.0,216
mp-545756,ZnSO4,-1.824828221249999,0.038264746249999,4.2625,False,NM,0.0018972,216
mp-971763,ZnSb3,0.402750873749997,0.433474751249999,0.0,False,NM,0.0,225
mp-1190,ZnSe,-0.9515610311718761,0.0,1.1663000000000001,False,NM,0.0,216
mp-1206365,ZnSiNi2,-0.347605812499999,0.0812169625,0.0,False,NM,0.000363,225
mp-1064667,ZnSiP2,0.405204674761904,0.796861516249999,0.0,False,NM,6.21e-05,225
mp-977384,ZnSiRh2,-0.6848659674999981,0.0,0.0,False,NM,0.0,225
mp-980905,ZnSn3,0.12660834875000002,0.12660834875000002,0.0,False,NM,0.00022229999999900002,225
mp-1187939,ZnSnRh2,-0.486263736249997,0.0,0.0,False,NM,0.0001091,225
mp-631349,ZnTcMo,0.680993743412704,0.740825499523811,0.0,True,FM,0.183634499999999,216
mp-2176,ZnTe,-0.6841630333333321,0.0,1.073299999999999,False,NM,0.0,216
mp-948,ZnTe,-0.39561094833333205,0.288552085,0.0,False,NM,1.3e-06,225
mp-8635,Zr,0.056982134999998005,0.056982134999998005,0.0,False,NM,7.299999999999999e-06,225
mp-1193087,Zr11Os4,-0.360055838000001,0.0,0.0,True,FM,0.509528,225
mp-541854,Zr2(Co7B2)3,-0.24836789086207603,0.013368399482754001,0.0,True,FiM,19.8870627,225
mp-5172,Zr2(Ni7B2)3,-0.37251527155172404,0.0,0.0,False,NM,5.1500000000000005e-05,225
mp-1078623,Zr2BIr6,-0.908147505833337,0.0,0.0,False,NM,0.0,225
mp-972327,Zr2CoOs,-0.531107747499998,0.0,0.0,True,FM,1.1488543,225
mp-864896,Zr2CoTc,-0.389741042500002,0.0,0.0,True,FM,0.6272337,225
mp-864897,Zr2CuOs,-0.34157464749999905,0.0,0.0,False,NM,6.53e-05,225
mp-1187940,Zr2CuRe,-0.21405377562499803,0.024603215026925,0.0,False,NM,0.0007624999999990001,225
mp-1232423,Zr2CuTc,-0.269826008749999,0.0,0.0,False,NM,3.8400000000000005e-05,225
mp-1187977,Zr2FeOs,-0.364442214999996,0.008808510446431,0.0,False,NM,0.0024989,225
mp-1187984,Zr2FeTc,-0.27890236374999905,0.0,0.0,False,NM,3.88e-05,225
mp-977549,Zr2OsRu,-0.713463296250004,0.0,0.0,False,NM,2.299999999999998e-06,225
mp-1188019,Zr2ReRh,-0.5500684131250021,0.010191826099994,0.0,False,NM,1.699999999999999e-06,225
mp-1188001,Zr2TcIr,-0.8171731149999991,0.0,0.0,False,NM,4.9000000000000005e-06,225
mp-1188020,Zr2TcNi,-0.389061736249999,0.0,0.0,False,NM,0.0001316,225
mp-1188002,Zr2TcOs,-0.585212774999998,0.0,0.0,False,NM,1.76e-05,225
mp-977578,Zr2TcPd,-0.561379077499999,0.0,0.0,False,NM,8e-07,225
mp-1188004,Zr2TcRh,-0.717358112499997,0.0,0.0,False,NM,5.42e-05,225
mp-1188003,Zr2TcRu,-0.605694131249999,0.0,0.0,False,NM,4.7e-06,225
mp-1064892,Zr2TiAl,-0.177245892916669,0.134377186666664,0.0,True,FM,1.8232338000000001,225
mp-1193952,Zr3(Ni10B3)2,-0.449808846724137,0.0,0.0,False,NM,0.4445744,225
mp-541097,Zr3Pb(O2F3)2,-3.663523270357143,0.0,2.844999999999999,False,NM,0.0005051,225
mp-1215370,Zr4CuS8,-1.714396173846152,0.0,0.0,False,NM,1e-07,216
mp-1215917,Zr4NiMo,-0.191594984166666,0.009926580625,0.0,False,NM,0.015975,216
mp-1215383,Zr4ZnAg,-0.05666018333333701,0.106610464166667,0.0,False,NM,2.0388342,216
mp-1215375,Zr5S8,-1.762313219999999,0.092711104134615,0.0,False,NM,0.227895,216
mp-1194423,Zr6Al16Co7,-0.5695696565517241,0.0,0.0,True,FM,3.0017344,225
mp-1193568,Zr6Al16Ir7,-0.966491318620691,0.0,0.0,False,NM,0.043819899999999,225
mp-1193679,Zr6Al16Ni7,-0.64103096137931,0.0,0.0,False,NM,0.084413599999999,225
mp-1193840,Zr6Al16Pd7,-0.7551117965517241,0.0,0.0,False,NM,0.0166072,225
mp-1193272,Zr6Al16Pt7,-0.9174733796551721,0.0,0.0,False,NM,0.058023399999999004,225
mp-1192673,Zr6Al16Rh7,-0.828366046896551,0.0,0.0,False,NM,2.9007015,225
mp-866136,Zr6Al16Ru7,-0.7132116018965521,0.022832321704987002,0.0,False,NM,3.399999999999998e-06,225
mp-1193200,Zr6Al7Cu16,-0.353385487931033,0.0,0.0,False,NM,4.1e-06,225
mp-505576,Zr6Al7Cu16H9,-0.353043361348683,0.045972280921050004,0.0,False,NM,0.0016239,225
mp-1207415,Zr6Be15Co8,-0.30442866086206904,0.0,0.0,False,NM,0.007035199999999001,225
mp-1207422,Zr6Be15Cu8,-0.247027234310345,0.0,0.0,False,NM,0.0,225
mp-1207425,Zr6Be15Ni8,-0.38741353810344803,0.0,0.0,False,NM,2e-07,225
mp-1207398,Zr6Be15Pd8,-0.47174585913793105,0.0,0.0,False,NM,0.0201662,225
mp-672654,Zr6Co16Ge7,-0.42104192586207,0.02676970534484,0.0,True,AFM,0.001251599999999,225
mp-672680,Zr6Co16Si7,-0.6366147351724121,0.0,0.0,True,AFM,0.0001974,225
mp-30569,Zr6Co23,-0.20158460655172203,0.0,0.0,True,FiM,32.588662,225
mp-1192960,Zr6Fe16Si7,-0.5260717279310341,0.0,0.0,True,FM,5.6245875,225
mp-582924,Zr6Fe23,-0.16657137758620802,0.007645919655173,0.0,True,FiM,50.6050454,225
mp-1194195,Zr6Ga16Ir7,-0.6074821368965521,0.0,0.0,False,NM,0.3360931,225
mp-1194111,Zr6Ga16Os7,-0.421784548252197,0.07569403586956701,0.0,False,NM,0.0110648,225
mp-1194145,Zr6Ga16Pd7,-0.63931673741379,0.038117471810345006,0.0,False,NM,0.026938399999999002,225
mp-1194002,Zr6Ga16Pt7,-0.668783873793103,0.05031122850574601,0.0,False,NM,0.0539814,225
mp-1193205,Zr6Ga16Rh7,-0.6557914813793101,0.001932258188441,0.0,False,NM,0.5394426,225
mp-1193884,Zr6Ga16Ru7,-0.5473973285057451,0.043971352126433,0.0,True,FM,0.9957817,225