material_id,formula,formation_energy,ehull,band_gap,is_magnetic,magnetic_ordering,total_magnetization,spacegroup
mp-1192551,Ce6Mg23Si,-0.040469901166665004,0.009132079833333001,0.0,True,FM,6.8578612,225
mp-1192818,Ce6Mg23Sn,-0.019114942999998,0.037466682,0.0,True,FM,0.07262249999999901,225
mp-865862,CeAgAu2,-0.5002370729166671,0.007154323333331001,0.0,True,FM,1.0825323,225
mp-865885,CeAgHg2,-0.27755000166666705,0.0,0.0,True,FM,1.0854136,225
mp-865968,CeAlAg2,-0.19952588833333101,0.05376293166666601,0.0,True,FM,0.7840444,225
mp-2748,CeAs,-1.76066340625,0.0,0.0,True,FM,0.9680917,225
mp-23285,CeBi,-1.166013417500003,0.0,0.0,True,FM,1.0131275,225
mp-861888,CeBiAu2,-0.580154864999999,0.0,0.0,True,FM,0.9660624,225
mp-604453,CeBiPd,-1.028045071666667,0.0,0.0,True,FM,1.0057012,216
mp-1018162,CeBiPt,-0.9325651566666631,0.0,0.0,True,FM,0.996621499999999,216
mp-22672,CeC,-0.156624929583337,0.15743286083333102,0.0,False,NM,0.0002697,225
mp-31173,CeCd2Ag,-0.136087185416664,0.041352636093750006,0.0,True,FM,0.9763369,225
mp-1206708,CeCd2Cu,-0.186459201666679,0.076291191979166,0.0,True,FM,0.790208199999999,216
mp-2863,CeCd3,-0.322184762499997,0.0,0.0,True,FM,1.0420405,225
mp-865552,CeCdAg2,-0.156921468333331,0.0008577604687480001,0.0,True,FM,1.4258465,225
mp-866185,CeCdAu2,-0.570034574999992,0.0,0.0,True,FM,1.184076,225
mp-866274,CeCdHg2,-0.46699460624999706,0.0,0.0,True,FM,1.0054903,225
mp-12006,CeCdNi4,-0.34020869666666603,0.0,0.0,True,FiM,0.0965649,216
mp-1226639,CeDyFe4,-0.062534541944439,0.015107956666668,0.0,True,FiM,7.0426642,216
mp-1183803,CeDyMg2,0.007687149583335001,0.046905655000000004,0.0,True,FM,0.992632699999999,225
mp-984702,CeDyZn2,-0.263002830416664,0.0285889175,0.0,True,FM,1.0449691,225
mp-1183776,CeErIn2,-0.46568749083333205,0.037558575500000003,0.0,True,FiM,0.720094599999999,225
mp-984355,CeErMg2,0.008457877500001001,0.037956196250000004,0.0,True,FM,0.945311599999999,225
mp-1516700,CeEu2CrO6,-3.0493593,0.254538402799999,0.0,True,FM,15.9999998,225
mp-1518892,CeEu2VO6,-3.115097511,0.229095581824967,0.0,True,FM,14.9999997,225
mp-1520367,CeEu2WO6,-2.9151889180000032,0.291050198250001,0.0,True,FM,16.0000003,225
mp-1521416,CeEu2ZrO6,-3.46830823,0.17910904484999401,0.27639999999999904,True,FM,13.9999997,225
mp-1183853,CeEuAg2,-0.099458992083333,0.12271312875000301,0.0,True,FM,8.4755141,225
mp-1226635,CeEuAl4,-0.483847925833333,0.0,0.0,True,FM,8.4275265,216
mp-1183861,CeEuCd2,-0.265510841874998,0.048233525625004006,0.0,True,FM,8.4921003,225
mp-1183873,CeEuZn2,-0.199588381249999,0.039716445000001,0.0,True,FM,8.1610244,225
mp-20275,CeGeAu,-0.608225428333332,0.136998528333333,0.0,True,FM,1.0074776,216
mp-505569,CeH2,-0.588220359166667,0.017444702424242002,0.0,True,FM,1.0842609,225
mp-1008376,CeH3,-0.574761561562498,0.049830533203126005,0.0,True,FM,1.0058753,225
mp-1184341,CeHgAu2,-0.509137670624999,0.0,0.0,True,FM,1.2723768,225
mp-1183753,CeHoIn2,-0.39161914958333005,0.0,0.0,True,FM,0.878842599999999,225
mp-1183859,CeHoMg2,0.010234091250002,0.042300688749999,0.0,True,FM,0.9897849,225
mp-1183730,CeHoZn2,-0.263958206249997,0.027117953750000003,0.0,True,FM,1.0135371,225
mp-672191,CeInAg2,-0.26713019249999803,0.0,0.0,True,FM,1.0969717,225
mp-636232,CeInAu2,-0.6333426766666691,0.0,0.0,True,FM,1.0351215,225
mp-19834,CeInCu2,-0.28605080999999505,0.037035769374998,0.0,True,FM,0.1264778,225
mp-1226682,CeInCuAg,-0.22634971958333103,0.047777685937501,0.0,True,FM,0.7474178,216
mp-1206393,CeInNi4,-0.36710128277778703,0.0,0.0,True,FiM,0.5852514,216
mp-1071478,CeInPt4,-0.8071788644444451,0.0,0.0,True,FM,0.169218999999999,216
mp-1077075,CeIr5,-0.096466983333333,0.32576527805555705,0.0,False,NM,0.0012285,216
mp-1226499,CeLuAl4,-0.48702652361110904,0.039212635833333,0.0,True,FM,0.4634831,216
mp-1183764,CeLuMg2,0.011481273333333,0.028354333333335,0.0,True,FM,0.883168,225
mp-1039270,CeMg,0.6252438208333361,0.6616360466666681,0.0,True,FM,2.2831727,225
mp-1039365,CeMg,1.349000783333334,1.385393009166666,0.11279999999999901,True,FM,8.2297035,216
mp-1205661,CeMg(NiH)4,-0.203497056999999,0.151581242999998,0.0,True,FM,0.364861799999999,216
mp-31175,CeMg2Ag,0.0051230820833340004,0.12190619583333401,0.0,True,FM,1.0015982,225
mp-30504,CeMg2Cu,0.14339414390625102,0.22031641437500002,0.0,True,FM,0.948942499999999,225
mp-1226521,CeMg2Fe,0.32044220500000103,0.352932036249999,0.0,True,FiM,1.7318909,225
mp-1192794,Gd4InIr,-0.5625942448611091,0.0,0.0,True,FiM,28.7426101,216
mp-1191587,Gd4MgRh,-0.37210244208333104,0.0,0.0,True,FiM,59.1230575,216
mp-1213042,Gd4MgRu,-0.23249924499999902,0.0,0.0,True,FiM,27.522847,216
mp-1194558,Gd6Fe23,1.242713354137931,1.247780772687628,0.0,True,FM,16.2968849,225
mp-1192643,Gd6Mg23C,-0.064710267,0.0,0.0,True,FM,43.9600421,225
mp-1194710,Gd6Mn23,0.9264030088822891,0.9264030088822821,0.0,True,FiM,2.318258,225
mp-1193017,Gd6Zn23,-0.318120239827586,0.007427585384611001,0.0,True,FiM,14.4994955,225
mp-510374,GdAs,-1.745141461249996,0.0,0.0,True,FM,7.0010877,225
mp-1006223,GdB12,-0.246215324615384,0.017602166538461,0.0,True,FM,6.8851766,225
mp-614481,GdBi,-1.058404597500001,0.0,0.0,True,FM,7.0041645,225
mp-1076916,GdBiPd,-1.004648475,0.0,0.0,True,FM,7.0,216
mp-620271,GdBiPt,-1.020906396666664,0.0,0.0,True,FM,7.0053504,216
mp-1184477,GdCdAg2,-0.257734304999999,0.0,0.0,True,FM,7.808691,225
mp-866167,GdCdAu2,-0.686602019999995,0.0,0.0,True,FM,7.4276798,225
mp-865745,GdCdHg2,-0.40989632875000104,0.0,0.0,True,FM,6.9610079,225
mp-866034,GdCdPd2,-0.654463927499999,0.036239378055554,0.0,True,FM,7.0881452,225
mp-1184494,GdCdPt2,-0.776240217499998,0.0452610025,0.0,True,FM,7.0840871,225
mp-1184998,GdCdRh2,-0.539593857499998,0.017015833750001,0.0,True,FM,7.2275252,225
mp-1072041,GdCu4Au,-0.318305115000002,0.0,0.0,True,FM,7.556169,216
mp-1025013,GdCu4Pd,-0.32145595999999904,0.0,0.0,True,FM,7.5083275,216
mp-1224645,GdDyAl4,-0.576521792499998,0.0027485666666670003,0.0,True,FM,7.9102768,216
mp-1184659,GdDyIn2,-0.5756186187499951,0.004577857499999,0.0,True,FM,7.3932279,225
mp-1184518,GdDyIr2,-0.787152615416665,0.0,0.0,True,FiM,6.707081599999999,225
mp-1184497,GdDyRh2,-0.8302849479166631,0.010205010000001001,0.0,True,FiM,6.8523747,225
mp-1184527,GdDyTl2,-0.44123588374999606,0.0053560424999970005,0.0,True,FM,7.4718576,225
mp-1184524,GdDyZn2,-0.360958308749996,0.006292025000000001,0.0,True,FM,8.0427725,225
mp-1224689,GdErCo4,-0.19254410833333202,0.0,0.0,True,FiM,2.9908958,216
mp-1184516,GdErHg2,-0.536767297083322,0.013151487500003,0.0,True,FM,7.1919637,225
mp-1184762,GdErIn2,-0.5570772283333301,0.0029924149999970002,0.0,True,FM,7.4239904,225
mp-1184499,GdErIr2,-0.8192354099999971,0.0,0.0,True,FiM,6.712825,225
mp-1184815,GdErRh2,-0.838685382499999,0.035867435,0.0,True,FM,7.0327804,225
mp-1184790,GdErRu2,-0.31988622,0.0,0.0,True,FiM,7.1446757,225
mp-1184521,GdErZn2,-0.35683741333333,0.012334192499999001,0.0,True,FM,7.9586593,225
mp-972965,GdF3,-4.1566355175,0.0,2.862199999999999,True,FM,6.9676451,225
mp-863249,GdGaRh2,-0.7545565268749971,0.0,0.0,True,FM,7.0561189,225
mp-24092,GdH2,-0.738397805833332,0.0,0.0,True,FM,7.3283182,225
mp-1184535,GdHoIr2,-0.780845451249998,0.0,0.0,True,FM,6.9928692,225
mp-1184533,GdHoTl2,-0.431151676249996,0.004715847500001,0.0,True,FM,7.4727209,225
mp-1065288,GdInAu2,-0.747285812500003,0.0,0.0,True,FM,7.2185934,225
mp-614489,GdInCu2,-0.330713011250001,0.014399730000000001,0.0,True,FM,7.0641261,225
mp-1077293,GdInCu4,-0.27117108166666704,0.0,0.0,True,FM,7.042144,216
mp-1206797,GdInNi4,-0.36767713777777605,0.0,0.0,True,FiM,6.9342866,216
mp-624070,GdInPd2,-0.7820519666666651,0.0,0.0,True,FM,7.169654,225
mp-1072097,GdInPt4,-0.799347841111104,0.0,0.0,True,FM,7.0845923,216
mp-1184543,GdLuAg2,-0.31449813000000004,0.0,0.0,True,FM,7.3040365,225
mp-1224606,GdLuAl4,-0.499238749444444,0.007289675833335001,0.0,True,FM,7.6624833,216
mp-1184534,GdLuCd2,0.9619119808333341,1.267871247500001,0.0,True,FM,1.6156734,225
mp-1184522,GdLuCu2,-0.24603091416666703,0.0,0.0,True,FM,7.2553381,225
mp-1184485,GdLuIr2,-0.8383990116666661,0.0,0.0,True,FiM,6.72588,225
mp-1185598,GdLuRh2,-0.8829054766666661,0.0327951525,0.0,True,FM,6.9522674,225
mp-1184510,GdLuRu2,-0.35386996416666405,0.0,0.0,True,FiM,0.984853699999999,225
mp-20149,GdMg2Ag,-0.070372727916666,0.10081793999999901,0.0,True,FM,7.1901835,225
mp-20534,GdMg3,-0.067499458749999,0.0042635812499990005,0.0,True,FM,7.5024341,225
mp-1184490,GdMgAg2,-0.281870002083331,0.0,0.0,True,FM,7.9035962,225
mp-1184513,GdMgAu2,0.528134741249999,1.238531485000001,0.0,True,FM,1.7355253,225
mp-865590,GdMgCd2,-0.28294914124999904,0.0,0.0,True,FM,7.1398543,225
mp-1184495,GdMgHg2,-0.44852425250000105,0.0,0.0,True,FM,7.0688327,225
mp-977381,GdMgNi4,-0.37409176249999704,0.0,0.0,True,FiM,6.3030012,216
mp-866059,GdMgRh2,-0.66018253625,0.0,0.0,True,FM,7.1938634,225
mp-865883,GdMgZn2,-0.32625569124999904,0.0,0.0,True,FM,7.273138,225
mp-940,GdN,-1.815181784374996,0.0,0.0,True,FM,6.9999888,225
mp-1071438,GdNi4Au,0.49467901000000103,0.8554350700000001,0.0,True,FiM,1.3418416,216
mp-567422,GdNiBi,-0.6714214433333361,0.0,0.0,True,FiM,7.0,216
mp-569197,GdNiSb,-0.9520464433333321,0.0,0.0,True,FiM,7.0000001,216
mp-7870,GdO,-3.047584887500001,0.19859160583333202,0.0,True,FM,6.0406184,216
mp-510401,GdP,-1.772993238988093,0.0,0.0,True,FM,6.9991997999999995,225
mp-1184525,GdPaRu2,-0.35051793749999405,0.0,0.0,True,FiM,6.8562774,225
mp-1184505,GdPaTc2,-0.06718808000000101,0.0,0.0,True,FM,6.9007749,225
mp-20415,GdPbAu,-0.782890306666663,0.0,0.0,True,FM,7.0191239,216
mp-510402,GdS,-2.233706316406248,0.0,0.0,True,FM,7.0859279,225
mp-510403,GdSb,-1.336321550000001,0.0,0.0,True,FM,6.9995755,225
mp-11839,GdSbPt,-1.189332089999997,0.0,0.0,True,FM,6.9999999,216
mp-568926,GdSbPt,-0.6652870499999981,0.5240450399999991,0.0,True,FM,6.9964229,216
mp-510404,GdSe,-2.009486029531245,0.0,0.0,True,FM,7.1067165,225
mp-20514,GdSnAu,-0.915463206666667,0.0,0.0,True,FM,7.0112131,216
mp-1184508,GdSnPd2,-0.82564842,0.011732512031247,0.0,True,FM,7.2011409,225
mp-866089,GdSnRh2,0.56503649125,1.1991396384375,0.0,True,FM,0.7446577,225
mp-1184715,GdTc3,0.218302143750001,0.218302143750001,0.0,True,FM,6.9514689,225
mp-574283,GdTe,-1.537004795000001,0.064618484999996,0.0,True,FM,7.1208083,225
mp-1184613,GdThRu2,-0.368140685,0.0,0.0,True,FiM,6.8963497,225
mp-1184520,GdTmCd2,-0.29864614250000004,0.010417527500001,0.0,True,FM,8.2377271,225
mp-1184532,GdTmIr2,-0.8316884075000051,0.0,0.0,True,FiM,6.7192176,225
mp-1184489,GdTmRh2,0.42474209249999806,1.314682304999999,0.0,True,FM,1.0961958,225
mp-1224554,GdUAl4,-0.31885977333333404,0.10684535041666601,0.0,True,FiM,4.6090862999999995,216
mp-1224416,GdYAl4,-0.5738361633333321,0.0034514233333320004,0.0,True,FM,7.9309259999999995,216
mp-1224937,GdYCo4,-0.12028572499999901,0.015357329803919002,0.0,True,FiM,3.0816903,216
mp-1184512,GdYCu2,-0.1798317075,0.018415403750001003,0.0,True,FM,7.2987641,225
mp-1184526,GdYHg2,-0.5487775287500011,0.012239112499997,0.0,True,FM,8.2095149,225
mp-1184732,GdYIr2,0.48310187000000204,1.083624357500003,0.0,True,FiM,6.7205872,225
mp-1184458,GdYRh2,-0.8065622549999991,0.00996111,0.0,True,FM,7.0237922,225
mp-1184716,GdYRu2,1.037854300000001,1.2979035747499998,0.0,True,FM,1.3347665,225
mp-1184742,GdZrRu2,-0.45291001874999903,0.0,0.0,True,FiM,7.0809698,225
mp-12093,Ge,0.334029505,0.334029505,0.0,False,NM,5e-07,225
mp-1079674,Ge(NF3)2,-0.384601814999999,1.219529387222224,0.0,True,FM,3.9965176,225
mp-1184561,Ge3As,0.333755243541666,0.36390253583333204,0.0,False,NM,0.0006154999999990001,225
mp-1184555,Ge3B,0.9841349989583331,0.9841349989583331,0.0,False,NM,0.00047139999999900006,225
mp-976783,Ge3F,-0.38524880640624903,0.424940815624999,0.0,False,NM,7.3e-05,225
mp-1184556,Ge3H,0.5399889559375001,0.551115306093749,0.0,False,NM,0.0125989,225
mp-1184667,Ge3Ir,0.22222440604166802,0.43514089916666804,0.0,False,NM,0.0001125,225
mp-1184652,Ge3Os,0.454837305000001,0.517446282499999,0.0,False,NM,1.4700000000000002e-05,225
mp-976122,Ge3Sb,0.285639341249999,0.285639341249999,0.0,False,NM,0.0009096,225
mp-1184584,GeAu3,0.13271842249999802,0.13271842249999802,0.0,False,NM,0.0,225
mp-973623,GeBi3,0.23017160124999902,0.23017160124999902,0.0,False,NM,0.0069472,225
mp-1002164,GeC,0.438373328749999,0.438373328749999,1.658099999999999,False,NM,0.0007528999999990001,216
mp-1002165,GeC,1.271791283749999,1.271791283749999,0.0,False,NM,0.0004029,225
mp-1079742,GeN2OF6,-0.208247814,1.434716181500004,0.0,True,FM,8.0,225
mp-8373,GeP,0.256152170178571,0.265862070833334,0.0,False,NM,0.0108461,216
mp-1224310,GeSb,0.173203952499999,0.173203952499999,0.0,False,NM,0.0004478,216
mp-9935,GeSb,0.049425492499999,0.049425492499999,0.0,False,NM,0.002564899999999,225
mp-10759,GeSe,-0.39054057617187404,0.061162514999999,0.015300000000000001,False,NM,0.0,225
mp-2612,GeTe,-0.015159295000000001,0.020308700000001,0.40680000000000005,False,NM,0.0004342,225
mp-34047,H(WO3)2,-1.6653552401388891,0.347996750625,0.29860000000000003,True,FM,0.9999941999999991,225
mp-634659,H2,2.33094435125,2.33094435125,7.5517,True,FM,1.0,225
mp-24201,H2S,0.804053400312501,0.9748080833333341,0.0,False,NM,0.0007067999999990001,225
mp-24420,H2Se,0.645250212552082,0.645250212552084,0.0,False,NM,2.6400000000000005e-05,225
mp-973786,H3Pb,0.778113938749999,0.778113938749999,0.0,False,NM,0.0216464,225
mp-643397,H8Pd(NCl3)2,-0.816932634117647,0.0055545708823530006,1.0972,False,NM,0.0,225
mp-24227,H8Pt(NCl3)2,-0.849392803529412,0.0,1.7803,False,NM,0.0009461999999990001,225
mp-23903,HBr,0.619884496875,1.1372166275,0.0,False,NM,0.000129899999999,225
mp-23722,HCl,0.464806479374999,1.2792983725,0.0,False,NM,0.0013502,225
mp-1184598,HOs3,0.938164963749997,0.938164963749997,0.0,False,NM,0.0025092,225
mp-24289,HPd,-0.056277304374999004,0.033071667499999,0.0,False,NM,0.0,225
mp-24722,HRh,0.050810500625001004,0.050810500625001004,0.0,True,FM,0.741208699999999,225
mp-614456,He,0.0026731600000000004,0.0026731600000000004,17.8914,False,NM,0.0,225
mp-8640,Hf,0.08898112999999301,0.08898112999999301,0.0,False,NM,1.4700000000000002e-05,225
mp-1194066,Hf2(Co7B2)3,-0.259579637413802,0.005909421551718,0.0,True,FiM,19.7502411,225
mp-1194313,Hf2(Ni7B2)3,-0.454722904999999,0.0,0.0,True,FiM,1.352166599999999,225
mp-631558,Hf2BiB,0.9424658864583291,1.486540625416665,0.0,False,NM,0.011053499999999002,216
mp-1184620,Hf2CoCu,-0.242313967499999,0.11391075240384801,0.0,True,FM,0.245894299999999,225
mp-864835,Hf2CoIr,-0.674844285,0.06937529874999801,0.0,True,FM,1.8087043,225
mp-1184586,Hf2CoOs,-0.657288555000008,0.0,0.0,True,FM,1.0170944,225
mp-864877,Hf2CoRe,-0.40352034562499706,0.061333699913793005,0.0,True,FiM,0.4123089,225
mp-866088,Hf2CoTc,-0.5066660425,0.0,0.0,True,FM,0.388839799999999,225
mp-864939,Hf2CuIr,-0.575825659999997,0.027659626136513002,0.0,False,NM,0.0001514,225
mp-864974,Hf2CuOs,-0.42781410749999704,0.012591963653848001,0.0,False,NM,6.2e-06,225
mp-977567,Hf2CuRe,-0.29158919062500005,0.0,0.0,False,NM,1.5200000000000002e-05,225
mp-1184615,Hf2CuRh,-0.481268304999997,0.03392611365385,0.0,False,NM,0.0002467,225
mp-1184609,Hf2CuTc,-0.33759410374999804,0.0,0.0,False,NM,2.54e-05,225
mp-864890,Hf2FeIr,-0.6709873499999991,0.0,0.0,True,FiM,0.9846655,225
mp-865179,Hf2FeOs,-0.5233899349999971,0.0,0.0,False,NM,2.2800000000000005e-05,225
mp-1184678,Hf2FeRh,-0.576664187499996,0.0,0.0,True,FiM,0.997834,225
mp-983362,Hf2FeTc,-0.409263881249999,0.0,0.0,False,NM,0.003507499999999,225
mp-981539,Hf2IrPd,-0.819708757499997,0.024055647569445,0.0,False,NM,0.0008236999999990001,225
mp-865178,Hf2IrRh,-0.915748999999998,0.0,0.0,False,NM,2e-07,225
mp-973434,Hf2IrRu,-0.8583679349999981,0.030085634999998,0.0,False,NM,0.005747899999999,225
mp-1184602,Hf2MnCo,-0.299833166982756,0.06911564343750201,0.0,True,FiM,0.3454969,225
mp-865138,Hf2MnIr,-0.650284114482758,0.0,0.0,False,NM,0.0,225
mp-1184587,Hf2MnOs,-0.46381128612068706,0.036951670208331004,0.0,True,FM,0.6068991,225
mp-977572,Hf2MnRh,-0.5476585286206871,0.0,0.0,False,NM,0.0,225
mp-864684,Hf2MoIr,-0.618836975,0.0,0.0,False,NM,0.0007727,225
mp-1184588,Hf2MoPt,-0.7021010049999951,0.0,0.0,False,NM,2e-07,225
mp-865130,Hf2MoRh,-0.553943044999996,0.030073170869563,0.0,False,NM,1.1400000000000003e-05,225
mp-1184611,Hf2NiIr,-0.7126042599999951,0.02096498,0.0,False,NM,4.6100000000000016e-05,225
mp-976265,Hf2OsPd,-0.742003662500003,0.034108613749992,0.0,False,NM,0.0,225
mp-865131,Hf2OsRh,-0.879132967499998,0.0,0.0,False,NM,2.299999999999998e-06,225
mp-1184604,Hf2OsRu,-0.8815631487500041,0.0,0.0,False,NM,0.0,225
mp-861978,Hf2ReIr,-0.747699680624995,0.0,0.0,False,NM,1.3600000000000002e-05,225
mp-977544,Hf2ReNi,-0.43036534062500004,0.025228360862067003,0.0,False,NM,0.014147999999999002,225
mp-864927,Hf2ReOs,-0.523476453124999,0.019220755099999,0.0,False,NM,0.0007557,225
mp-1184592,Hf2RePd,-0.558605920624998,0.0,0.0,False,NM,2.5800000000000004e-05,225
mp-977407,Hf2ReRh,-0.6860638156249971,0.0,0.0,False,NM,2e-07,225
mp-1184619,Hf2ReRu,-0.5699266806250001,0.032823162599999005,0.0,False,NM,0.0176528,225
mp-973443,Hf2ReTc,-0.40304602437499903,0.027327045099999003,0.0,False,NM,0.004445,225
mp-975897,Hf2RuRh,-0.884543898750003,0.019983948221153,0.0,False,NM,1.1000000000000001e-05,225
mp-1184567,Hf2TcIr,-0.8600996162499961,0.0,0.0,False,NM,1.699999999999999e-06,225
mp-1184612,Hf2TcNi,-0.5111100000000021,0.011364907499995,0.0,False,NM,0.00021669999999900002,225
mp-977541,Hf2TcOs,-0.717994072500005,0.0,0.0,False,NM,0.0001176,225
mp-1184594,Hf2TcPd,-0.653100327500006,0.0,0.0,False,NM,1.899999999999999e-06,225
mp-864916,Hf2TcRh,-0.855599377500006,0.0,0.0,False,NM,0.0,225
mp-867327,Hf2TcRu,-0.739465143750003,0.0,0.0,False,NM,1.2600000000000001e-05,225
mp-866012,Hf2ZnRe,-0.29622867812499704,0.0,0.0,False,NM,7.88e-05,225
mp-1184568,Hf2ZnTc,-0.39023227875000105,0.0,0.0,False,NM,1.9600000000000002e-05,225
mp-1193581,Hf3(Ni10B3)2,-0.45361218051723906,0.039822545459771,0.0,False,NM,0.0095005,225
mp-1094258,Hf3Mg,0.244750298750001,0.244750298750001,0.0,False,NM,0.0154089,225
mp-1224677,Hf4NiRh,-0.501283806458341,0.002748419166664,0.0,False,NM,0.0006906,216
mp-1193847,Hf6Al16Co7,-0.5419002251724131,0.0,0.0,False,NM,0.7108417,225
mp-1212464,Hf6Al16Ir7,-0.8190861031034481,0.0,0.0,False,NM,2.4200000000000002e-05,225
mp-973769,Hf6Al16Os7,-0.631305023017234,0.012853226637933,0.0,False,NM,0.3362519,225
mp-1193241,Hf6Al16Pd7,-0.7573526651724121,0.0,0.0,False,NM,1.8e-06,225
mp-1194470,Hf6Al16Pt7,-0.9630460293103421,0.0,0.0,False,NM,5.6e-06,225
mp-983480,Hf6Al16Rh7,-0.8702147972413821,0.0,0.0,False,NM,9.910000000000002e-05,225
mp-1212451,Hf6Be15Co8,-0.33060158155172303,0.031825735824588,0.0,False,NM,9.230000000000001e-05,225
mp-1212455,Hf6Be15Cu8,-0.25383042362068703,0.0,0.0,False,NM,2.6e-06,225
mp-1212450,Hf6Be15Ni8,-0.41340117775862,0.0,0.0,False,NM,1.5e-06,225
mp-1212443,Hf6Be15Pd8,-0.48144289086206704,0.0,0.0,False,NM,1.628863599999999,225
mp-672657,Hf6Co16Ge7,-0.463417819137928,0.0,0.0,False,NM,0.0088284,225
mp-672689,Hf6Co16Si7,-0.659060421724135,0.0,0.0,True,AFM,0.00013199999999900002,225
mp-1192795,Hf6Co23,-0.219458956206894,0.0,0.0,True,FiM,32.6167211,225
mp-640158,Hf6Fe16Si7,-0.5401952206896531,0.0,0.0,True,FiM,2.4518476,225
mp-1193188,Hf6Ga16Co7,-0.37894752076437604,0.064682395287356,0.0,True,FM,2.6145785,225
mp-1193078,Hf6Ga16Ni7,-0.459467399655172,0.03822102103448,0.0,False,NM,0.0031328,225
mp-1192479,Hf6Ga16Pd7,-0.5658194674137911,0.045029918706894004,0.0,False,NM,0.0001494,225
mp-1193089,Hf6Ga16Rh7,-0.5964016579310331,0.025121999108128002,0.0,False,NM,1.5516836,225
mp-580092,Hf6Ni16Ge7,-0.600447166551722,0.0,0.0,False,NM,2.6e-06,225
mp-580744,Hf6Si7Ni16,-0.7998302012069001,0.0,0.0,False,NM,3.399999999999998e-06,225
mp-1194036,Hf6Zn16Cu7,-0.20087316275861902,0.0,0.0,False,NM,0.014673199999999002,225
mp-1100399,HfAgB,0.8752871963888961,1.455574813055559,0.0,False,NM,9.1e-05,216
mp-10872,HfAlAu2,-0.564644290555548,0.018337413333334003,0.0,False,NM,1.1900000000000001e-05,225
mp-5221,HfAlCo2,-0.5731287975,0.0,0.0,True,FiM,1.0004176,225
mp-10887,HfAlCu2,-0.328564839999998,0.0,0.0,False,NM,8e-07,225
mp-983358,HfAlFe2,-0.37188885999999904,0.010338156499999002,0.0,True,FM,0.9745858,225