material_id,formula,formation_energy,ehull,band_gap,is_magnetic,magnetic_ordering,total_magnetization,spacegroup
mp-1185762,Mg2CdRh,-0.280065619999999,0.02131258,0.0,False,NM,3.9500000000000005e-05,225
mp-23804,Mg2FeH6,-0.39694997083333305,0.0,1.913999999999999,False,NM,0.0,225
mp-1185763,Mg2GaPd,-0.41576439187499903,0.0142237425,0.0,False,NM,4e-07,225
mp-408,Mg2Ge,-0.34389672666666704,0.0,0.16890000000000002,False,NM,0.0,225
mp-643002,Mg2H6Os,-0.31633465527777704,0.0,3.3481,False,NM,0.0,225
mp-697030,Mg2H6Ru,-0.438372025277776,0.0,3.0681,False,NM,0.0,225
mp-1185760,Mg2HgAu,-0.39306523062500104,0.001544009999998,0.0,False,NM,3e-06,225
mp-1185765,Mg2IrAu,-0.42680446999999905,0.049751644144736006,0.0,False,NM,0.00064,225
mp-1185767,Mg2IrPd,-0.50694018,0.036997494144737006,0.0,False,NM,0.0001574,225
mp-1185768,Mg2IrPt,-0.568500835,0.0,0.0,False,NM,6e-07,225
mp-1185766,Mg2IrRh,-0.35493815249999905,0.050510196644736,0.0,False,NM,0.001013,225
mp-631386,Mg2NbFe,0.576391344999999,0.63049270403846,0.0,True,FM,2.4419027,225
mp-1077177,Mg2Ni,0.064661996666667,0.21769566111111002,0.0,False,NM,0.000426999999999,225
mp-1185769,Mg2NiIr,-0.247352247499999,0.047353665660635,0.0,False,NM,0.0018988,225
mp-1185770,Mg2NiRh,-0.331893409999999,0.010170365156250001,0.0,False,NM,0.0,225
mp-1180353,Mg2OsS6,-0.254711397222221,0.745416106666665,0.0,False,NM,0.0013964,225
mp-20724,Mg2Pb,-0.036373903333329,0.0,0.0,False,NM,5e-07,225
mp-631637,Mg2PbW,0.7867072650000011,0.813987692499998,0.0,True,FM,0.2773143,216
mp-864972,Mg2PdAu,-0.658968265000001,0.000403262499998,0.0,False,NM,0.0,225
mp-864975,Mg2PdPt,-0.7936226175000011,0.0,0.0,False,NM,4.8e-06,225
mp-864969,Mg2PdRh,-0.625471557499999,0.0,0.0,False,NM,1.2e-06,225
mp-864940,Mg2PtRh,-0.688206122499999,0.0,0.0,False,NM,1.6e-06,225
mp-864965,Mg2RhAu,-0.5368869725000001,0.0,0.0,False,NM,4.9800000000000025e-05,225
mp-1367,Mg2Si,-0.10859876333333301,0.0,0.21799999999999903,False,NM,0.0,225
mp-2343,Mg2Sn,-0.167098778333331,0.0,0.0,False,NM,2e-07,225
mp-978256,Mg2TlPb,-0.032516090833334,0.0,0.0,False,NM,9.6e-06,225
mp-978265,Mg2ZnPd,-0.412960854999998,0.009695222395834,0.0,False,NM,5e-07,225
mp-978266,Mg2ZnPt,-0.5081330124999991,0.019372948928570003,0.0,False,NM,9e-06,225
mp-978267,Mg2ZnRh,-0.32066003999999904,0.014426390789473002,0.0,False,NM,0.0001147,225
mp-10117,Mg3(Ni10B3)2,-0.30728921482758403,0.0,0.0,False,NM,0.0018352,225
mp-14842,Mg3(Ni10P3)2,-0.47896040009852003,0.0,0.0,False,NM,0.0002829,225
mp-1094666,Mg3Al,0.07094717125000001,0.07658508552083301,0.0,False,NM,0.0047588,225
mp-1038831,Mg3Bi,0.007594483749999,0.11926069562499801,0.0,False,NM,0.000386899999999,225
mp-1038832,Mg3Cd,0.0050486062500000005,0.05591680499999901,0.0,False,NM,1.6e-06,225
mp-978276,Mg3Co,0.175756181874999,0.175756181874999,0.0,True,FM,0.29359,225
mp-1094633,Mg3Ga,-0.007412890624999001,0.086378139999999,0.0,False,NM,0.0051364,225
mp-978285,Mg3Mn,0.19579067676724102,0.19579067676724102,0.0,True,FM,3.6139868,225
mp-978289,Mg3Np,0.37167683781250105,0.37167683781250105,0.0,True,FM,4.6185307,225
mp-978291,Mg3Pa,0.351506697500003,0.351506697500003,0.0,True,FM,1.0446051,225
mp-1185782,Mg3Ru,0.035622083750000005,0.11385278781249901,0.0,False,NM,0.0001165,225
mp-1094520,Mg3Sb,-0.06392267124999901,0.20365941578124902,0.0,False,NM,0.0047799,225
mp-569313,Mg3Si8Ir3,-0.42394052678571303,0.0,0.0,False,NM,6e-07,216
mp-1094244,Mg3Sn,-0.034535197499999004,0.090788886249999,0.0,False,NM,9.810000000000001e-05,225
mp-1094358,Mg3Ti,0.232926825416666,0.232926825416666,0.0,False,NM,0.0002968,225
mp-1185815,Mg3U,0.459284739999997,0.459284739999997,0.0,True,FM,3.1978725,225
mp-1185800,Mg3V,0.33968948874999905,0.33968948874999905,0.0,True,FM,3.0241335,225
mp-1094464,Mg3Zn,0.03255305125,0.08568004365000001,0.0,False,NM,5.2400000000000007e-05,225
mp-1094467,Mg3Zr,0.13078607625000002,0.13078607625000002,0.0,False,NM,0.0001506,225
mp-569273,Mg44Ir7,-0.18718242813725602,0.0,0.0,False,NM,9e-07,216
mp-570153,Mg44Rh7,-0.19683133245098003,0.0,0.0,False,NM,0.014610199999999001,216
mp-1222117,Mg4SiGe,0.344226655833333,0.529638074999999,0.0,False,NM,0.0005658999999990001,216
mp-1222079,Mg4SiSn,0.257666939166667,0.39551571,0.0,False,NM,0.0003035,216
mp-1222113,Mg4SnGe,0.144971853333333,0.35291332833333305,0.0,False,NM,0.0032838,216
mp-634984,Mg5(Si8Pd5)2,-0.42778318306452,0.0,0.0,False,NM,3e-07,216
mp-30324,Mg5(Si8Pt5)2,-0.5579494953225811,0.0,0.0,False,NM,5e-07,216
mp-1232373,Mg5Ge,0.09210238500000001,0.26405074833333303,0.0,False,NM,0.0583558,216
mp-989522,Mg6Bi2PN,-0.473009168964286,0.0,0.904799999999999,False,NM,0.0002385,225
mp-21612,Mg6Cu16Si7,-0.158099330344826,0.0,0.0,False,NM,5.7e-06,225
mp-19239,Mg6MnO8,-2.838937343028735,0.0,2.2891,True,AFM,0.0,225
mp-1190582,Mg6NbH16,-0.16284064347826102,0.10258062206521701,0.0,True,FM,1.915304,225
mp-21587,Mg6Ni16As7,-0.348129073534481,0.0,0.0,False,NM,1e-07,225
mp-21725,Mg6Ni16Ge7,-0.377028498103448,0.0,0.0,False,NM,7.66e-05,225
mp-570457,Mg6Si7Ni16,-0.523236519655171,0.0,0.0,False,NM,1.43e-05,225
mp-1191852,Mg6TiH16,-0.18064561927536202,0.11905154597826001,0.0,True,FM,0.9106113,225
mp-1078138,Mg6V,0.27092163285714205,0.27092163285714305,0.0,True,FM,2.4793514,225
mp-1191096,Mg6VH16,-0.18212244304347802,0.08099974945652101,0.0,True,FM,1.8296561,225
mp-1079163,Mg7Nb,0.139065994375,0.139065994375,0.0,False,NM,0.0058963,225
mp-1191131,Mg7NbH16,-0.23089210604166602,0.058809824166667,0.0,True,FM,0.8121813,225
mp-1079116,Mg7Sc,0.042097116250000004,0.0503482825,0.0,False,NM,0.0014827999999990002,225
mp-1078548,Mg7Ti,0.11154865770833301,0.11154865770833301,0.0,True,FM,1.703004,225
mp-644281,Mg7TiH16,-0.23532840909722202,0.08722125833333201,0.0,True,FM,1.8229440000000001,225
mp-1078988,Mg7V,0.204878511875,0.204878511875,0.0,True,FM,2.4845869,225
mp-1192183,Mg7VH16,-0.203285222291667,0.08421342958333301,0.0,True,FM,0.9783928,225
mp-2232168,MgAg4(MoO4)2,-1.118835832111111,0.42794855411111304,0.036799999999999,False,NM,0.0,216
mp-1233345,MgAg4(RuO3)4,-0.9933324791269831,0.25836989023809603,0.0,False,NM,0.0018387,216
mp-1234665,MgAg4(RuO3)4,-1.017584760555555,0.234117608809524,0.0,False,NM,0.0026373,216
mp-3477,MgAgAs,-0.19340981472222102,0.14351466486111,0.0,False,NM,4e-06,216
mp-1185824,MgAgAu2,-0.33610151666666704,0.012053674333331,0.0,False,NM,1e-07,225
mp-1008903,MgAgSb,-0.27852765555555203,0.0,0.0,False,NM,4e-07,216
mp-1038818,MgAl,0.9031218025000001,0.913326448749999,0.0,False,NM,0.0065327,216
mp-1039010,MgAl,0.46102990250000003,0.47123454875000004,0.0,False,NM,0.0011288,225
mp-2226987,MgAl2(CuO2)4,-1.455615920999999,0.61987535766666,0.0,True,FM,3.989849,216
mp-1039180,MgAl3,0.092860188749999,0.101779416249999,0.0,False,NM,0.002473099999999,225
mp-2226796,MgAl4(CuO4)2,-1.894066729,0.968000239666666,0.0,False,NM,0.0001491,216
mp-865919,MgAlAg2,-0.167760192083331,0.0,0.0,False,NM,1e-07,225
mp-1185826,MgAlAu2,-0.47838773125000006,0.015376279999998,0.0,False,NM,2e-07,225
mp-865921,MgAlIr2,-0.6935179262500011,0.0,0.0,False,NM,7e-07,225
mp-1185843,MgAlNi2,-0.411823771249999,0.010864636666667002,0.0,False,NM,1.3e-06,225
mp-865152,MgAlPd2,-0.826217871249998,0.0,0.0,False,NM,1.8e-06,225
mp-865155,MgAlRh2,-0.834185793749998,0.0,0.0,False,NM,0.0,225
mp-2232207,MgBe2(CoO2)4,-1.250151969000001,0.7784551661458351,0.6891,True,FM,13.974408799999999,216
mp-631564,MgBe2B,0.694095131458333,0.739204621874999,0.0,False,NM,0.0016921,216
mp-1222012,MgBe4Cu,-0.018655102499999,0.0515319975,0.0,False,NM,0.0009911,216
mp-1221963,MgBeB,0.42781591361111104,0.487961900833334,0.0,False,NM,0.0045311,216
mp-1039170,MgBi,-0.020625337500001003,0.12826294499999702,0.0,False,NM,0.004707999999999,225
mp-1039025,MgCd,0.495365142500001,0.589996970833333,0.0,False,NM,0.0001794,216
mp-1039157,MgCd,0.18349659250000103,0.278128420833333,0.0,False,NM,0.0002129,225
mp-1039249,MgCd3,0.028750778750001003,0.07606669291666701,0.0,False,NM,4.5700000000000006e-05,225
mp-30727,MgCdAg2,-0.14649241208333202,0.0,0.0,False,NM,4.599999999999997e-06,225
mp-865150,MgCdAu2,-0.36839062374999604,0.016270255000002003,0.0,False,NM,1.5e-06,225
mp-1185850,MgCdPd2,-0.5580735787499981,0.0010655625000010002,0.0,False,NM,4.1e-06,225
mp-2232275,MgCo2(NiO2)4,-0.8522127149999991,0.653966093333333,0.0,True,FM,15.980163,216
mp-1185849,MgCo2Si,-0.280699186249999,0.031928345625,0.0,False,NM,0.009652299999999002,225
mp-2232147,MgCo4(NiS4)2,-0.396633898999999,0.45169488140476205,0.0,True,FiM,1.9376083,216
mp-2228477,MgCo5O8,-1.408332466785714,0.176078116857142,0.0,True,FM,18.9734355,216
mp-1222043,MgCr4FeO8,-2.398696282500001,0.005955298928583001,2.6919999999999993,True,FM,15.9999993,216
mp-2210713,MgCrO2,-1.596520068749999,0.9497839199999961,0.0,True,FM,4.0004627,225
mp-2232276,MgCu2(IrS2)4,-0.37899810033333103,0.38252397341666905,0.403599999999999,False,NM,0.0,216
mp-2228675,MgCu2(NiO2)4,-0.6986435763333321,0.648373605666667,0.0,True,FiM,4.0360181,216
mp-2220780,MgCu2(RhO2)4,-0.6235637349999991,0.659870900833332,0.16870000000000002,False,NM,5.0100000000000005e-05,216
mp-2232976,MgCu2(RhS2)4,-0.491576162333332,0.32505600641666604,0.22029999999999902,False,NM,0.0,216
mp-3676,MgCu4Sn,-0.12155869500000001,0.0,0.0,False,NM,1e-07,216
mp-2232749,MgCu6PbO8,-1.0509733515625,0.219658043691405,0.0,True,FM,1.2733663,216
mp-2233053,MgCu6PbO8,-0.9242815453124991,0.34634984994140605,0.0,False,NM,0.0007874,225
mp-30449,MgCuBi,-0.09895257833333301,0.016966318333331003,0.0,False,NM,6.2e-06,216
mp-1207094,MgCuPb,-0.009511431666665,0.065871513333333,0.0,False,NM,0.000386,216
mp-2210612,MgCuS,-0.25690221083333203,0.8510873733333321,0.0,False,NM,7.400000000000002e-05,216
mp-3522,MgCuSb,-0.32565874499999803,0.0,0.0,False,NM,2e-07,216
mp-11361,MgCuSn,-0.167420896666666,0.0,0.0,False,NM,1.2e-06,216
mp-636240,MgCuSn,0.09506045,0.262481346666666,0.0,False,NM,8.3e-06,216
mp-2232175,MgFe2(NiO2)4,-1.065523914333332,0.5944628833333351,2.0942,True,FM,18.0000043,216
mp-2232152,MgFe4(CoO4)2,-1.114114437666665,0.634834803833339,0.8209000000000001,True,FM,23.9945062,216
mp-2232262,MgFe4(HgO4)2,-1.005745589999999,0.6583004963333421,0.1627,True,FM,17.9986852,216
mp-865187,MgFeRh2,-0.29181303875,0.0,0.0,True,FM,4.3989436,225
mp-1094636,MgGa,0.153358928749999,0.286582109999999,0.0,False,NM,0.0020735,225
mp-1094654,MgGa,0.551820538749999,0.685043719999999,0.0,False,NM,0.0045261,216
mp-1094614,MgGa3,-0.020593779374999,0.08062214468750001,0.0,False,NM,0.001696899999999,225
mp-2228612,MgGa4(CuO4)2,-1.329057908333332,0.746382598999994,0.005399999999999,False,NM,1.7500000000000002e-05,216
mp-865183,MgGaAg2,-0.141955728958331,0.0,0.0,False,NM,0.0,225
mp-865186,MgGaIr2,-0.457590178124999,0.0,0.0,False,NM,1e-07,225
mp-865092,MgGaNi2,-0.32843188312499905,0.0,0.0,False,NM,1.16e-05,225
mp-865123,MgGaPd2,-0.710474510624998,0.0,0.0,False,NM,4e-07,225
mp-1185861,MgGaPt2,-0.7027672531249981,0.0,0.0,False,NM,2.899999999999999e-06,225
mp-865125,MgGaRh2,-0.683136453124998,0.0,0.0,False,NM,0.0,225
mp-865160,MgGeIr2,-0.33299379500000104,0.019706491986839002,0.0,False,NM,2.5200000000000003e-05,225
mp-1185870,MgGePd2,-0.576235024999998,0.017724357500001002,0.0,False,NM,1e-07,225
mp-865162,MgGeRh2,-0.6094956424999991,0.0,0.0,False,NM,0.0,225
mp-1008901,MgH2,-0.1733321425,0.10938693000000001,0.0,False,NM,0.0004986999999990001,225
mp-1185872,MgH3,0.20738136281250003,0.41942066718750004,0.0,False,NM,0.0043831,225
mp-1185884,MgHgPd2,-0.466052556874999,0.0,0.0,False,NM,8e-07,225
mp-1233556,MgIn4(Ge2O7)2,-1.843765560072462,0.284246662391307,0.0,False,NM,2.26e-05,216
mp-973088,MgInAg2,-0.138226363749998,0.0,0.0,False,NM,1e-07,225
mp-30587,MgInCu4,-0.10344702527777601,0.0,0.0,False,NM,1e-07,216
mp-865044,MgInIr2,-0.24874925791666502,0.025935457187499,0.0,False,NM,5.7900000000000005e-05,225
mp-19929,MgInNi2,-0.18693864041666503,0.0,0.0,False,NM,9.480000000000001e-05,225
mp-865043,MgInPd2,-0.662940087916664,0.0,0.0,False,NM,1.5e-06,225
mp-977438,MgInRh2,-0.527043010416665,0.0,0.0,False,NM,3e-06,225
mp-2233064,MgMn(Ni3O4)2,-1.419731113933189,0.1295161590625,1.5885999999999991,True,FM,17.0002176,225
mp-2232146,MgMn4(NiO4)2,-1.157532045114942,0.8022105316666701,0.1008,True,FiM,14.0002585,216
mp-2232381,MgMn4(ZnS4)2,-0.6609268804482751,0.32629424533333,0.0,True,FM,17.7474355,216
mp-2227944,MgMn4ZnS8,-0.9472789704802951,0.044664776428565006,0.0,True,FM,15.9336724,216
mp-2232822,MgMnCd6O8,-1.576602144558188,0.066871233125,0.0,True,FM,4.999865,225
mp-1185894,MgMnIr2,-0.244600118232758,0.028513767187501003,0.0,True,FM,3.028486,225
mp-1185892,MgMnPd2,-0.46804089573275903,0.0,0.0,True,FM,4.5578798,225
mp-976406,MgMnPt2,-0.5800832007327561,0.0,0.0,True,FM,4.5816276,225
mp-977463,MgMnRh2,-0.316020983232757,0.0,0.0,True,FM,4.1416254,225
mp-1185895,MgMo3,0.37607716374999806,0.37607716374999806,0.0,False,NM,0.0008344,225
mp-1185897,MgNb3,0.27192295875,0.27192295875,0.0,False,NM,0.0022524,225
mp-1185902,MgNbOs2,-0.06972825375000001,0.030100213611108,0.0,False,NM,0.001319799999999,225
mp-977555,MgNbRh2,-0.48255177625000006,0.0,0.0,False,NM,1.4100000000000002e-05,225
mp-977430,MgNbRu2,-0.254914421249999,0.0,0.0,False,NM,2e-07,225
mp-30773,MgNi2Sb,-0.27849802374999905,0.06954002830357,0.0,False,NM,5.099999999999999e-06,225
mp-30774,MgNi2Sn,-0.268549039999994,0.0,0.0,False,NM,0.0027071,225
mp-29733,MgNiBi,-0.190246501666669,0.0,0.0,False,NM,1.4e-06,216
mp-15778,MgNiSb,-0.46046171499999805,0.0,0.0,False,NM,6e-07,216
mp-1265,MgO,-3.03830917,0.0,4.4292,False,NM,0.0,225
mp-1185917,MgPaAu2,-0.42663353125000103,0.0,0.0,True,FM,0.6183753,225
mp-1185914,MgPaPt2,-0.862502686249999,0.0,0.0,False,NM,0.000101099999999,225
mp-977441,MgPaRh2,-0.621889128749999,0.0,0.0,False,NM,0.000816,225
mp-977558,MgPaRu2,-0.37923765874999804,0.0,0.0,False,NM,9.6e-06,225
mp-1185915,MgPaTc2,-0.077512081250001,0.0,0.0,False,NM,0.00044009999999900006,225
mp-20056,MgPb2WO6,-2.127176590499999,0.01035659725,2.7567999999999993,False,NM,0.0,225
mp-1185923,MgPd2Au,-0.5026670762500001,0.0,0.0,False,NM,3e-07,225
mp-977113,MgPdAu2,-0.42962376374999905,0.0218674735,0.0,False,NM,0.0008146,225
mp-1206346,MgPt7,-0.293341678124997,0.0,0.0,False,NM,4.5e-06,225
mp-1205540,MgRe(PbO3)2,-2.027659899749999,0.038734467491071005,0.0,True,FM,0.513954799999999,225
mp-977283,MgRe3,0.27538156687499704,0.27538156687499704,0.0,False,NM,0.001616899999999,225
mp-977571,MgRh2Pb,-0.31581104124999904,0.0,0.0,False,NM,6.799999999999997e-06,225
mp-1185943,MgRu2W,-0.14710880374999702,0.0,0.0,False,NM,4.999999999999999e-06,225
mp-13032,MgS,-1.627640141249999,0.034344235,3.3692,False,NM,0.0,216
mp-1315,MgS,-1.66198437625,0.0,2.7574,False,NM,0.0,225
mp-1094188,MgSb,-0.215295407499999,0.141480708541667,0.0,False,NM,0.004525599999999,225
mp-10183,MgSbPd,-0.617305951666666,0.0,0.0,False,NM,0.0,216
mp-977579,MgSbPd2,-0.604305191249999,0.027854382500000004,0.0,False,NM,1e-07,225
mp-10184,MgSbPt,-0.700549848333336,0.0,0.0,False,NM,2e-07,216
mp-1185944,MgSbRh2,-0.513952843749999,0.006976350625000001,0.0,False,NM,0.0016473999999990002,225
mp-977575,MgSbRu2,-0.21622489125000002,0.009888666354165,0.0,False,NM,2e-06,225
mp-977580,MgSc2Al,-0.27686316374999903,0.0,0.0,False,NM,0.0003592,225
mp-866077,MgSc2Cd,-0.152068691249998,0.0,0.0,False,NM,0.433017,225
mp-1185965,MgSc2Ga,-0.33933331062500005,0.026335230937498,0.0,False,NM,0.006480199999999,225
mp-1185964,MgSc2Hg,-0.23157948687500102,0.0,0.0,False,NM,0.2772482,225
mp-977586,MgSc2In,-0.28329510291666404,0.0,0.0,True,FM,0.829504799999999,225
mp-1185963,MgSc2Ir,-0.5590431287499991,0.040237996071425,0.0,False,NM,0.010619199999999001,225
mp-866081,MgSc2Os,-0.271468781249999,0.0077615661458350005,0.0,False,NM,0.00048489999999900006,225
mp-866079,MgSc2Ru,-0.29856756125,0.10369779749999901,0.0,False,NM,0.000345,225
mp-866082,MgSc2Tc,-0.11391717999999901,0.017830675312500002,0.0,False,NM,3.4e-05,225
mp-866080,MgSc2Tl,-0.18301463708333301,0.0,0.0,True,FM,1.1999157,225
mp-977554,MgScAg2,-0.275858943333332,0.0,0.0,False,NM,1.3300000000000001e-05,225
mp-1185960,MgScAu2,-0.743946162499998,0.0,0.0,False,NM,3.1200000000000006e-05,225
mp-1100394,MgScB,-0.092182583055554,0.33713452916666603,0.1575,False,NM,0.0007323999999990001,216
mp-977556,MgScCd2,-0.22856628249999902,0.0,0.0,False,NM,2.499999999999999e-06,225
mp-961665,MgScGa,-0.279399509166667,0.139297552499999,0.055400000000000005,False,NM,0.003152899999999,216
mp-977564,MgScHg2,-0.37706008375000205,0.0,0.0,False,NM,1e-07,225
mp-1185957,MgScIr2,-0.7056134675000011,0.004180634144735,0.0,False,NM,1.1e-06,225
mp-977566,MgScPd2,-0.831790764999999,0.0,0.0,False,NM,6e-06,225
mp-1185958,MgScPt2,-1.05601506,0.0,0.0,False,NM,3e-07,225
mp-866069,MgScRh2,-0.803388284999998,0.0,0.0,False,NM,0.0,225
mp-962071,MgScTl,0.255079955555553,0.382752605,0.0,False,NM,0.0015398,216
mp-1185961,MgScZn2,-0.307532452499999,0.0,0.0,False,NM,1.48e-05,225
mp-10760,MgSe,-1.464236923671875,0.010059789999999002,1.7609,False,NM,0.0,225
mp-13031,MgSe,-1.468356818671876,0.0059398949999990005,2.5476,False,NM,0.0,216
mp-866086,MgSiIr2,-0.5389448612499981,0.0,0.0,False,NM,0.0,225
mp-1017516,MgSiP2,0.287620386428571,0.6988827275,0.0,False,NM,0.0010823,225
mp-866087,MgSiRh2,-0.7484711662500001,0.0,0.0,False,NM,4.1e-06,225
mp-1094232,MgSn,0.11003518500000001,0.23535926874999902,0.0,False,NM,0.0001895,225
mp-1519158,MgSn2WO6,-2.023034342499999,0.16677936953845401,1.978399999999999,False,NM,0.0,225
mp-1094230,MgSn3,0.028035187500000003,0.09069722937500001,0.0,False,NM,0.0013172,225
mp-5549,MgSnAu,-0.434026843333333,0.0,0.0,False,NM,4e-07,216
mp-864906,MgSnIr2,-0.331300907499998,0.0,0.0,False,NM,3.9e-06,225
mp-1180444,MgSnO6,-0.8212241675,0.738990159374996,0.0,True,FM,6.0000231,225
mp-864883,MgSnPd2,-0.672182389999998,0.0,0.0,False,NM,0.0,225
mp-866073,MgSnRh2,-0.6325345399999991,0.0,0.0,False,NM,1.1000000000000001e-05,225
mp-1185980,MgSnRu2,-0.12290521999999801,0.004328620029761,0.0,False,NM,0.0034969,225
mp-1185977,MgTa3,0.32143499825000105,0.32143499825000105,0.0,False,NM,0.000455999999999,225
mp-866075,MgTaIr2,-0.5456193755833331,0.0,0.0,False,NM,0.033456099999999,225
mp-866071,MgTaOs2,-0.17512255058333,0.0,0.0,False,NM,4.9000000000000005e-06,225
mp-866072,MgTaRh2,-0.5557907105833341,0.0,0.0,False,NM,2.2e-06,225
mp-864903,MgTaRu2,-0.34892140808333105,0.0,0.0,False,NM,3.8700000000000006e-05,225
mp-631335,MgTaZn,0.668751169222222,0.7395871590888891,0.0,False,NM,0.1174151,216
mp-1008786,MgTe,-1.002967378333334,0.06860242499999901,0.42710000000000004,False,NM,0.0,225
mp-13033,MgTe,-1.071569803333334,0.0,2.3186,False,NM,0.0,216
mp-21309,MgTe(PbO3)2,-1.858674747166666,0.024942458111095002,2.261599999999999,False,NM,0.0,225
mp-1094328,MgTi3,0.22828907625000003,0.22828907625000003,0.0,True,FM,3.4286249,225
mp-2232181,MgTi4(CuS4)2,-1.139054249888888,0.322265840666665,0.187199999999999,True,FM,1.9982918,216
mp-2218993,MgTi4O8,-2.318984664487179,1.06083033182694,0.262499999999999,True,FM,1.9998369,216
mp-2219114,MgTi4O8,-3.336112619871795,0.043702376442324005,0.0,True,FM,1.0190418,216
mp-1191885,MgTi7H16,-0.548110949097222,0.013422287916666002,0.0,False,NM,0.0048251,225
mp-1185975,MgTiCo2,-0.197108172083333,0.021323858749999,0.0,False,NM,3.799999999999998e-06,225
mp-864908,MgTiIr2,-0.7674558595833321,0.0,0.0,False,NM,3e-07,225
mp-864919,MgTiRh2,-0.7641694720833331,0.0,0.0,False,NM,1e-07,225
mp-1185982,MgTl3,0.076251678749994,0.08474601583333001,0.0,False,NM,0.0098499,225
mp-864902,MgTlRh2,-0.255620167083336,0.0,0.0,False,NM,3.4800000000000006e-05,225
mp-1185623,MgURu2,-0.19973920624999902,0.018292870416665,0.0,True,FiM,1.453691399999999,225
mp-1185618,MgVRh2,-0.408425596249999,0.009542651249999,0.0,True,FM,0.964533,225
mp-1185620,MgVRu2,-0.17304296874999903,0.0,0.0,False,NM,0.0071086,225
mp-2228597,MgZn(CoS2)4,-0.825959705357142,0.067121347857144,0.4953,False,NM,0.0,216
mp-2232277,MgZn2(CoS2)4,-0.430403096333332,0.502375837694437,0.0,True,FM,1.822032699999999,216
mp-2232506,MgZn2(FeS2)4,-0.487980050333332,0.48972466066666703,0.0,True,FM,10.0025567,216
mp-1185621,MgZn2Ir,-0.27469357124999905,0.0,0.0,False,NM,1e-07,225
mp-1185617,MgZn2Pt,-0.44675564124999906,0.016772005714284003,0.0,False,NM,0.0007972,225