material_id,formula,formation_energy,ehull,band_gap,is_magnetic,magnetic_ordering,total_magnetization,spacegroup
mp-1406,MnTe,-0.5502373072413811,0.061231469999999004,0.0,True,FM,4.9899056999999996,225
mp-1221598,MnTe(PbO3)2,-1.64501356345977,0.032074654944437,1.0191,True,AFM,0.0,225
mp-22792,MnTePd,-0.20975325486589902,0.174475190689654,0.0,True,FM,4.8395046,216
mp-622980,MnTePd,-0.0034567115325660003,0.38077173402298603,0.0,True,FM,4.6412311,216
mp-864953,MnV2Cr,-0.14542008612068802,0.0,0.0,True,FiM,0.6323669,225
mp-1186011,MnV2Fe,-0.19157807448275901,0.025323855937498002,0.0,True,FiM,0.1218001,225
mp-865462,MnV2Os,-0.281838733620688,0.011769333879318,0.0,False,NM,1.79e-05,225
mp-1186006,MnV2Ru,-0.22974726987068902,0.048536869166667,0.0,False,NM,0.0072644,225
mp-864984,MnV3,-0.08009572362068801,0.018973895,0.0,False,NM,0.0006315,225
mp-631555,MnVNi,0.560809612672417,0.826440026666666,0.0,True,FM,1.579491,216
mp-864983,MnVRu2,-0.320021453620686,0.0,0.0,True,FM,4.0953342,225
mp-1221557,MnZn(CrS2)4,-1.016192887709358,0.0,0.3357,True,FM,16.9999835,216
mp-1221602,MnZn(FeO2)4,-1.7536117305665022,0.036959754285715005,1.083899999999999,True,FM,25.000004,216
mp-1186003,MnZnAu2,-0.32300060487068905,0.0,0.0,True,FM,4.2199624,225
mp-864985,MnZnIr2,-0.20868979198275803,0.0,0.0,True,FM,3.2582342,225
mp-1186005,MnZnNi2,-0.17057716198275702,0.0,0.0,True,FM,5.0263022,225
mp-1186001,MnZnPd2,-0.398006396982758,0.0,0.0,True,FM,4.6548684,225
mp-1186015,MnZnPt2,-0.445890844482756,0.009851775000001001,0.0,True,FM,4.6684674,225
mp-864987,MnZnRh2,-0.45294993237068903,0.009981027999998001,0.0,True,FM,3.852408999999999,225
mp-8637,Mo,0.41146717999999805,0.41146717999999805,0.0,False,NM,2e-07,225
mp-1205766,Mo(NCl3)2,0.174625085555555,1.150361313333332,0.0,True,FM,6.0,225
mp-1221492,Mo2O,1.447113328333332,2.4578909225,0.0,True,FM,2.9666704,225
mp-975814,Mo3H,0.8458279112499981,0.8458279112499981,0.0,True,FM,0.14759339999999901,225
mp-1202049,Mo3H12C4NO10,-0.8972753023333331,0.31145222591666405,3.334399999999999,True,FM,2.0000369,225
mp-975905,Mo3I,0.8714024587499971,1.112571903541665,0.0,True,FM,0.9999855,225
mp-1009218,MoC,0.42430560312499904,0.5847240181249981,0.0,False,NM,0.001374,216
mp-2746,MoC,0.137979838125001,0.298398253125,0.0,False,NM,2.7000000000000002e-05,225
mp-1210624,MoH8(NF2)3,-1.166390829166666,0.32093732037036404,2.4636,True,FiM,1.0050389,225
mp-13034,MoN,-0.22152745750000002,0.324692961249999,0.0,True,FM,0.7642384,216
mp-16730,MoN,-0.14565970249999902,0.400560716249999,0.0,False,NM,0.0010428,225
mp-1080023,MoOs(PbO3)2,-1.5327349709999991,0.13357214749999802,0.0,True,FiM,0.0040522,225
mp-1001785,MoP,-0.021708293988094002,0.6742935750000001,0.0,True,FM,0.247525399999999,225
mp-1001837,MoP,0.198260446011907,0.8942623150000021,0.0,True,FM,0.984397699999999,216
mp-1186023,MoP3,0.356998291517857,0.797705496875,0.0,True,FM,0.0425566,225
mp-631576,MoPt2Br,0.39423272875000104,0.921003341249999,0.0,False,NM,0.0604242,216
mp-1405065,MoS2,-0.698599509375,0.267543035833332,0.0,False,NM,0.0007220999999990001,216
mp-554769,MoSBr,-1.107187294166664,0.017180114166663003,0.794999999999999,False,NM,0.0,216
mp-1210546,MoSCl,-1.000267434409724,0.021415537499999002,0.8894000000000001,False,NM,0.0005200000000000001,216
mp-1210554,MoSI,-0.899989985,0.022877439722221,0.908,False,NM,0.0006265,216
mp-721759,N2,4.506578815000001,4.506578815000001,0.0,False,NM,0.0,225
mp-1057084,NCl,2.1616432675,2.1616432675,0.0,False,NM,4.9000000000000005e-06,225
mp-724172,NClO4,0.7452088624999991,1.264486757291666,0.0,True,FM,1.9991493,216
mp-1221597,Na,0.410783303448275,0.410783303448275,0.0,False,NM,0.0021229,216
mp-974558,Na,0.008802479999999,0.008802479999999,0.0,False,NM,0.0,225
mp-758835,Na(Cu3O4)2,-1.006200700758621,0.018213963416664,0.0,True,FM,3.0373207,225
mp-37307,Na(WO3)2,-2.178079369042147,0.011291004646452002,0.0,False,NM,1.1e-06,225
mp-1111192,Na2AgAsBr6,-1.059481001192528,0.15059737449999902,1.0359,False,NM,0.0009308999999990001,225
mp-1111543,Na2AgAsCl6,-1.087198737499999,0.14412406225000202,1.4895,False,NM,2.1700000000000002e-05,225
mp-1111093,Na2AgAsF6,-2.230443554192528,0.21942645195833302,1.940599999999999,False,NM,0.000308699999999,225
mp-1111187,Na2AgAuBr6,-0.9519464624425281,0.136803043499999,0.0,False,NM,0.0017897,225
mp-1111541,Na2AgAuCl6,-1.159400961442529,0.145296239499999,0.0,False,NM,0.0012088,225
mp-1111335,Na2AgAuF6,-1.7467587267000022,0.200679823999998,0.0,False,NM,0.0082525,225
mp-1111325,Na2AgIrF6,-1.9888569672083292,0.098434275375005,1.1009,False,NM,6.35e-05,225
mp-1111323,Na2AgMoF6,-2.418915739499999,0.14865126712499802,1.7775,True,FM,2.9999635,225
mp-1111321,Na2AgPdF6,-1.9113476919166712,0.135771390333324,0.0,True,FM,1.0049794,225
mp-1111320,Na2AgRhF6,-2.077397621442528,0.073441636500001,1.4496,False,NM,1.5600000000000003e-05,225
mp-1111319,Na2AgRuF6,-2.115148350499999,0.12236551200000101,0.0,True,FM,1.0021601,225
mp-1111538,Na2AgSbCl6,-1.165585368750001,0.141184698999994,1.5820999999999992,False,NM,0.0007049,225
mp-1111317,Na2AgSbF6,-2.297960701442528,0.289991674333332,1.666799999999999,False,NM,0.0005970999999990001,225
mp-1111586,Na2AlAgBr6,-1.305377246442528,0.19810042975000003,1.4745,False,NM,0.0007007,225
mp-1111545,Na2AlAgCl6,-1.481905871500001,0.151799932999997,2.461,False,NM,0.0021901,225
mp-1111337,Na2AlAgF6,-2.8812404791249993,0.12842412662499,2.2358000000000002,False,NM,2.5600000000000002e-05,225
mp-1111088,Na2AlAuF6,-2.675296087166669,0.280685186333331,0.905099999999999,False,NM,1.6100000000000002e-05,225
mp-1111082,Na2AlCuF6,-2.902017959604157,0.155378028145839,0.237299999999999,False,NM,6.4e-06,225
mp-1111743,Na2AlHgBr6,-1.250770430525862,0.258602373250001,0.0,False,NM,0.0009054,225
mp-1111667,Na2AlHgCl6,-1.379015431250005,0.265252749,0.0,False,NM,0.0181338,225
mp-1111253,Na2AlHgF6,-2.776269223874999,0.27168587112499204,0.0,False,NM,0.00021209999999900002,225
mp-1111090,Na2AlInF6,-2.968158859458332,0.18539986495832703,2.888,False,NM,7e-07,225
mp-1110621,Na2AlTlF6,-2.977590612499995,0.191568562749997,4.067299999999999,False,NM,0.000386699999999,225
mp-1111089,Na2AsAuF6,-1.9541965959999992,0.40019886112499903,0.6327,False,NM,2.3500000000000002e-05,225
mp-1522988,Na2BiWO6,-1.870817817275861,0.127304125250001,0.0,False,NM,0.0002499,225
mp-1210274,Na2C,1.273791083132183,1.273791083132184,0.0,True,FM,2.0000286,225
mp-1221375,Na2CaSi,-0.102518485775862,0.198043762974138,0.14780000000000001,False,NM,0.0004239,216
mp-973056,Na2CdHg,-0.128988431314657,0.011814057857141002,0.0,False,NM,4.599999999999997e-06,225
mp-20389,Na2CdPb,-0.13259495568965102,0.0,0.0,False,NM,5.299999999999997e-06,216
mp-1111509,Na2CeCuCl6,-1.760409293999998,0.182295997000002,0.0,True,FM,1.0006403,225
mp-1522277,Na2CeFeO6,-1.990470062275861,0.17915116849999901,0.0,True,FiM,2.0000001,225
mp-1520572,Na2CeWO6,-2.64105161127586,0.087544435500004,1.8375,False,NM,0.0,225
mp-1111334,Na2CoAgF6,-2.185827259442528,0.141002104124996,1.4033,False,NM,4.7e-06,225
mp-1111141,Na2CoAuF6,-2.018158489275862,0.276585498499999,0.9908000000000001,False,NM,0.0001348,225
mp-1111189,Na2CoHgF6,-2.119184760525863,0.27575266550000205,0.0,True,FM,0.940958299999999,225
mp-1111094,Na2CrAgF6,-2.556679519442528,0.139831533249995,2.3255,True,FM,3.000004,225
mp-1111086,Na2CrAuF6,-2.361215615275862,0.286642656166667,1.1718,True,FM,3.0,225
mp-1111186,Na2CrHgF6,-2.460015896525862,0.27404716774999305,0.0,True,FM,3.91438,225
mp-1111289,Na2CuAsF6,-2.155844369875,0.20771083612499902,0.7308,False,NM,0.00024099999999900002,225
mp-1111511,Na2CuAuCl6,-1.193242452275862,0.131527937166667,0.0,False,NM,5.97e-05,225
mp-1111283,Na2CuAuF6,-1.971181321275861,0.18052917433332702,0.0,False,NM,0.0016178,225
mp-1111135,Na2CuBiBr6,-1.142300283275862,0.16425632550000002,0.8534,False,NM,0.0003322,225
mp-1111510,Na2CuBiCl6,-1.222679208666666,0.12324852449999901,1.134999999999999,False,NM,8.54e-05,225
mp-1111279,Na2CuBiF6,-2.269895509750001,0.25052234424999903,0.44910000000000005,False,NM,0.0003479,225
mp-1111066,Na2CuMoF6,-2.3870390468750022,0.18052795974999603,0.0,True,FM,2.9998385,225
mp-1111274,Na2CuPdF6,-2.076635056180551,0.10280856744445001,0.0,False,NM,0.006553799999999,225
mp-1111536,Na2CuSbCl6,-1.152637600250001,0.14094836000000102,0.910799999999999,False,NM,0.000174,225
mp-1111272,Na2CuSbF6,-2.299891334275862,0.28819534175,0.46680000000000005,False,NM,0.0002241,225
mp-1111132,Na2DyCuCl6,-1.7790154235000002,0.154009534,1.6541000000000001,False,NM,0.000308,225
mp-1111508,Na2ErCuCl6,-1.776939179083334,0.15456221325000102,1.698999999999999,False,NM,0.0006288999999990001,225
mp-1111507,Na2EuCuCl6,-1.8193175667758612,0.14661590866666702,0.35700000000000004,True,FiM,6.0000003,225
mp-1518085,Na2EuMnO6,-1.741940168568967,0.269358675392854,0.0,True,FiM,6.0000005,225
mp-1111331,Na2FeAgF6,-2.389226476442528,0.13921960087499902,1.7821,True,FM,4.9999165,225
mp-21259,Na2FeCu(CN)6,0.047175630452586007,0.31945288648437103,0.0,True,FM,0.985673199999999,225
mp-1111180,Na2FeHgF6,-2.306277580525862,0.259720508374998,0.0,True,FiM,4.1822125,225
mp-1111537,Na2GaAgBr6,-1.173909956192528,0.21135223499999903,0.0,False,NM,0.0010021,225
mp-1111121,Na2GaAgCl6,-1.473927971192528,0.166290601000001,1.1607,False,NM,4.4900000000000014e-05,225
mp-1111329,Na2GaAgF6,-2.5217648191925273,0.125292953666668,1.5786,False,NM,1.8100000000000003e-05,225
mp-1111188,Na2GaAgI6,-0.7563067011925281,0.23091373275000002,0.0,False,NM,0.0036994999999990005,225
mp-1111305,Na2GaAuF6,-2.325130192025862,0.28179026366666604,0.306,False,NM,0.00017539999999900002,225
mp-1111277,Na2GaCuF6,-2.530371012025862,0.151399140312501,0.0,False,NM,0.0047335,225
mp-1111064,Na2GaHgBr6,-1.147934416275862,0.24322290250000103,0.0,False,NM,0.0005451,225
mp-1111661,Na2GaHgCl6,-1.410606430275863,0.25333505500000003,0.0,False,NM,0.00024239999999900002,225
mp-1111169,Na2GaHgF6,-2.434844721275862,0.24976506316666802,0.0,False,NM,0.0024097,225
mp-1022729,Na2H6Ir,-0.197133064629629,0.150812633703704,0.0,True,FM,0.9554661,225
mp-690785,Na2H6Pt,-0.43719653361111105,0.0,3.6156,False,NM,0.0,225
mp-1111742,Na2HgAsBr6,-1.023430627275862,0.192542875999999,0.0,False,NM,0.0051588,225
mp-1111068,Na2HgAsCl6,-1.009124537249998,0.232760638249999,0.0,False,NM,0.012327999999999001,225
mp-1111208,Na2HgAsF6,-2.0645671925,0.289828264624999,0.0,False,NM,0.0121236,225
mp-1111804,Na2HgAsI6,-0.6928415362758631,0.18419881781249803,0.0,False,NM,0.0010639,225
mp-1186021,Na2HgAu,-0.294989354375001,0.016146524166668,0.0,False,NM,3.7e-06,225
mp-1111190,Na2HgAuF6,-1.7460563790833392,0.26841009399999805,0.0,True,FM,0.634394999999999,225
mp-1111063,Na2HgMoF6,-2.238174925625,0.329392081000003,0.0,True,FM,2.0016861,225
mp-1111157,Na2HgPdF6,-1.951963834525862,0.21246412700000003,0.0,True,FM,1.7262325,225
mp-1111156,Na2HgRhF6,-2.013202965249994,0.192968133000013,0.0,False,NM,5.7600000000000004e-05,225
mp-1111411,Na2HgSbF6,-2.240170674525862,0.347781701249998,0.0,False,NM,0.003732999999999,225
mp-1111184,Na2InAgBr6,-1.201057848109195,0.160506503499998,0.16970000000000002,False,NM,0.0005543999999990001,225
mp-1111534,Na2InAgCl6,-1.312393254333331,0.122314266,1.284,False,NM,0.0029833,225
mp-1111326,Na2InAgF6,-2.38118393333333,0.173168064666677,1.0817,False,NM,0.00019669999999900002,225
mp-1111075,Na2InAsF6,-2.265938955416666,0.35489845741666404,1.609899999999999,False,NM,0.0001124,225
mp-1111503,Na2InCuBr6,-1.178132886942528,0.155029701499999,0.0,False,NM,0.0005878,225
mp-1111118,Na2InCuCl6,-1.296175764833327,0.125347648000005,0.0,False,NM,0.0001164,225
mp-1111083,Na2InCuF6,-2.413345171430557,0.183926867194443,0.0,True,FM,0.0576092,225
mp-1111022,Na2InGaF6,-2.526253784692528,0.25918574650000004,1.861899999999999,False,NM,0.00013859999999900002,225
mp-1111740,Na2InHgBr6,-1.167029937192529,0.20042954200000002,0.0,False,NM,3.5000000000000004e-05,225
mp-1111168,Na2InHgF6,-2.305226996083327,0.28117477616666303,0.0,False,NM,0.010521299999999002,225
mp-1111304,Na2IrAuF6,-1.82079917266667,0.251788961999997,0.3562,False,NM,0.0004944,225
mp-1110995,Na2LaCuCl6,-1.791900309499999,0.2052710895,1.3857,False,NM,0.0004808,225
mp-1111056,Na2LiAlF6,-3.4068037605,0.033782415999999,6.545999999999999,False,NM,0.0,225
mp-644092,Na2LiAlH6,-0.31283416035919404,0.003962321500002,2.6364,False,NM,0.0,225
mp-1110998,Na2LiAsF6,-2.619168398416666,0.09459736524999901,4.3114,False,NM,0.0004954,225
mp-1113945,Na2LiAuCl6,-1.351259954609195,0.231484690500001,0.0,False,NM,0.2778044,225
mp-1110991,Na2LiAuF6,-2.223027951609195,0.19720161000000203,0.41750000000000004,True,FM,2.0000885,225
mp-1111739,Na2LiBiBr6,-1.406309012609195,0.1639040585,2.9192,False,NM,0.000382399999999,225
mp-1111659,Na2LiBiCl6,-1.528863747083333,0.12172115900000101,3.5061,False,NM,0.0001119,225
mp-1110905,Na2LiBiF6,-2.71512521066667,0.158474526,4.3529,False,NM,0.0001712,225
mp-1111803,Na2LiBiI6,-0.979076233609195,0.1919603715,1.9141,False,NM,0.0009239,225
mp-1113920,Na2LiCeCl6,-2.091345688416666,0.156016775499999,0.4811,True,FM,1.0003111,225
mp-1114241,Na2LiCrF6,-3.046895989609195,0.049134442083336005,4.323,True,FM,2.9998168,225
mp-1113839,Na2LiDyCl6,-2.118701853916666,0.11898027650000201,3.974599999999999,False,NM,7.8e-05,225
mp-1113921,Na2LiErCl6,-2.117608908500001,0.11854965674998501,3.9979,False,NM,0.000377699999999,225
mp-1113918,Na2LiEuCl6,-2.047822178109195,0.163668451916668,0.0,True,FM,6.0,225
mp-1114242,Na2LiGaF6,-3.015398045359195,0.019078542666666,5.7453,False,NM,4.18e-05,225
mp-1113919,Na2LiGdCl6,-2.095180996416668,0.12971205800000002,2.9065000000000003,True,FM,7.0000162,225
mp-1111477,Na2LiInCl6,-1.7703537842758612,0.120071880333333,2.9328000000000003,False,NM,0.0005424,225
mp-1110904,Na2LiInF6,-2.8928523722758612,0.09833388349999801,4.8635,False,NM,0.0001036,225
mp-1114239,Na2LiIrF6,-2.456846318566668,0.031441088600001,2.1677,False,NM,0.000112799999999,225
mp-1113840,Na2LiLaCl6,-2.125028335916666,0.17680023600000103,3.9591000000000003,False,NM,0.001115699999999,225
mp-1113316,Na2LiLuCl6,-2.122649153083337,0.113208250625001,4.1938,False,NM,0.002680499999999,225
mp-1114240,Na2LiMnF6,-2.872809395402298,0.10461474675000501,0.0,True,FM,3.9998013,225
mp-989504,Na2LiNF6,-1.8110903991091951,0.0926462995,2.7522,False,NM,0.0015787,225
mp-1110637,Na2LiNbF6,-2.862566670041668,0.18370168925000002,0.0,True,FM,2.0002431,225
mp-1113739,Na2LiNdCl6,-2.096593988666667,0.15828975450000002,4.0094,False,NM,0.0001248,225
mp-1114109,Na2LiNiF6,-2.586728331000009,0.064630795833331,0.0,True,FM,1.0000451,225
mp-1114237,Na2LiPdF6,-2.353466008083337,0.106919024333327,0.0,True,FM,0.9993633999999991,225
mp-1113740,Na2LiPrCl6,-2.087457080583333,0.170177802499997,3.981499999999999,False,NM,0.007221099999999,225
mp-1114234,Na2LiRhF6,-2.551669323609194,0.037087602999998005,1.843799999999999,False,NM,4.1100000000000016e-05,225
mp-1110634,Na2LiRuF6,-2.560326733958335,0.051654969083331004,0.0,True,FM,1.0001349,225
mp-1111476,Na2LiSbCl6,-1.452950612666666,0.14529252049999902,2.9225000000000003,False,NM,0.00019669999999900002,225
mp-1110657,Na2LiSbF6,-2.752620847609194,0.180381917,3.6063,False,NM,0.0009618,225
mp-1111475,Na2LiScCl6,-2.05722915541667,0.10326976325000001,3.7427,False,NM,0.001583199999999,225
mp-1113900,Na2LiScF6,-3.482679924109195,0.078752605833332,6.059800000000001,False,NM,0.0,225
mp-1113741,Na2LiSmCl6,-2.221644845109196,0.131820636035715,4.055099999999999,False,NM,0.0,225
mp-631339,Na2LiTa,1.233161440890803,1.233161440890803,0.0,True,FM,3.2870489,216
mp-1113318,Na2LiTbCl6,-2.118356705416667,0.12254839850000102,3.96,False,NM,0.0001615,225
mp-1113901,Na2LiTiF6,-3.231862227942528,0.067136590916667,0.0,True,FM,0.993758199999999,225
mp-1111738,Na2LiTlBr6,-1.293645462942529,0.12404254675000001,0.573099999999999,False,NM,0.00018439999999900002,225
mp-1111474,Na2LiTlCl6,-1.580069067942528,0.137880684750001,1.628299999999999,False,NM,0.0,225
mp-1110629,Na2LiTlF6,-2.554093055916669,0.057615387249999005,3.372,False,NM,8.27e-05,225
mp-1113284,Na2LiTmCl6,-2.123752818416668,0.11472816699999501,4.177,False,NM,1.3500000000000001e-05,225
mp-1114229,Na2LiVF6,-3.015468999609195,0.137307851999993,0.0,True,FM,1.999808499999999,225
mp-1111737,Na2LiYBr6,-1.879860537609195,0.14349630699999902,3.1247,False,NM,0.0002935,225
mp-1111473,Na2LiYCl6,-2.110053904166673,0.1259306855,3.9688,False,NM,0.001573599999999,225
mp-1110628,Na2LiYF6,-3.476040767166667,0.15463783050000002,5.4375,False,NM,0.0015841,225
mp-1111531,Na2LuAgCl6,-1.807236088166671,0.137148250125001,3.0362,False,NM,1.699999999999999e-06,225
mp-1110994,Na2LuCuCl6,-1.781204823666668,0.149995407125,1.7902,False,NM,0.0013631,225
mp-1111324,Na2MnAgF6,-2.432016140235632,0.157989186749999,0.0,True,FM,3.9999903,225
mp-1111303,Na2MnAuF6,-2.265300433068965,0.279325420833334,0.0,True,FiM,4.0000942,225
mp-1111165,Na2MnHgF6,-2.428299653318966,0.199257685249999,0.0,True,FM,5.0000991,225
mp-1110617,Na2MnTlF6,-2.516186545402299,0.22052746350000002,0.0,True,FM,4.0000383,225
mp-1111302,Na2MoAuF6,-2.223017425874999,0.344549580750001,0.9192,True,FM,3.0000929,225
mp-1111091,Na2NbAgF6,-2.365670392166666,0.45089234533333405,0.0,True,FM,1.6537506,225
mp-1522192,Na2NbBiO6,-2.089303164275861,0.12323857200000601,0.4173,False,NM,0.0,225
mp-1113374,Na2NdCuCl6,-1.760070670250002,0.19015590000000002,1.417599999999999,False,NM,0.0003855,225
mp-1111162,Na2NiHgF6,-2.2108729589,0.132979571249999,1.7089,True,FM,1.998881,225
mp-2352,Na2O,-1.425738685919539,0.0,1.8736000000000002,False,NM,0.0,225
mp-1111301,Na2PdAuF6,-1.755471605333335,0.25765370466666904,0.0,False,NM,0.0110637,225
mp-1113375,Na2PrCuCl6,-1.844187332166667,0.10879037799999801,3.360999999999999,False,NM,0.0007235999999990001,225
mp-1516361,Na2PrWO6,-2.367559417442528,0.131845655249999,0.0,True,FM,1.0000001,225
mp-1111300,Na2RhAuF6,-1.894455808833338,0.219930886500003,0.7408,False,NM,0.000106699999999,225
mp-1111087,Na2RuAuF6,-1.9315875195000012,0.30592634299999905,0.0,True,FM,1.0157747,225
mp-648,Na2S,-1.269244534270833,0.0,2.4399,False,NM,0.0,225
mp-1111412,Na2SbAuF6,-2.119919269275861,0.4680331065,0.7439999999999991,False,NM,0.000366599999999,225
mp-1111525,Na2ScAgCl6,-1.744232230500002,0.12479362274999702,3.133099999999999,False,NM,1.4900000000000001e-05,225
mp-1111316,Na2ScAgF6,-2.957031199833333,0.16716017633333602,1.7086000000000001,False,NM,3.01e-05,225
mp-1111084,Na2ScAuF6,-2.7569687074444493,0.317226133444446,0.6933,False,NM,1.0100000000000002e-05,225
mp-1111532,Na2ScCuCl6,-1.723878963999999,0.131962781750001,1.839299999999999,False,NM,0.00024219999999900002,225
mp-1111065,Na2ScCuF6,-2.978915552250001,0.19589029762499902,0.10639999999999901,False,NM,0.0110832,225
mp-1111062,Na2ScHgF6,-2.855925310583337,0.30655655483333,0.0,True,FM,0.7280586,225
mp-1266,Na2Se,-1.2695772096875,0.0,2.0153,False,NM,0.0,225
mp-1111488,Na2SmCuCl6,-1.898987165775862,0.16384438128571402,1.4634,False,NM,0.000188,225
mp-1206635,Na2SnHg,-0.23816745125000302,0.030109953437499,0.0,False,NM,0.0019119999999990002,216
mp-631880,Na2SrFe,0.666450399310345,0.666450399310345,0.0,True,FM,2.5148654,225
mp-1111551,Na2TaAgF6,-2.44288677695333,0.48359733253333503,0.24070000000000003,False,NM,0.021573,225
mp-1111549,Na2TaAuF6,-2.464241126243328,0.46435589603999805,1.189,False,NM,1.1100000000000002e-05,225
mp-1111478,Na2TaHgF6,-2.555270270786664,0.371213838699999,0.0,False,NM,0.856397099999999,225
mp-1111485,Na2TbCuCl6,-1.779138691000001,0.15710924,1.6434000000000002,False,NM,0.001219899999999,225
mp-1518133,Na2TbWO6,-2.465841334942527,0.09478232100000401,0.0,True,FM,1.0028515,225
mp-2784,Na2Te,-1.127802620000001,0.0,2.0282,False,NM,0.0,225
mp-1111315,Na2TiAgF6,-2.747848715775861,0.39605304883333403,0.0,True,FM,0.7480276,225
mp-631554,Na2TiAu,0.548553906408045,0.826041029324713,0.0,True,FM,0.2151988,225
mp-1111293,Na2TiAuF6,-2.618074477609195,0.525827286999999,0.0,True,FM,0.8364725,225
mp-1111410,Na2TiHgF6,-2.8401182438591963,0.30378352075000004,1.8645,False,NM,0.0002747,225
mp-1111314,Na2TlAgF6,-2.073246263749998,0.125196229249999,0.130699999999999,False,NM,0.0005172,225
mp-1111404,Na2TlAsF6,-2.228802435250003,0.22148645999999703,2.0624,False,NM,0.0018271,225