material_id,formula,formation_energy,ehull,band_gap,is_magnetic_x,magnetic_ordering,total_magnetization_x,spacegroup,heusler_type,is_magnetic_y,total_magnetization_y
mp-622990,GaFe2Ni,-0.018714536874999,0.187673184038461,0.0,True,FM,4.4695514,225,full,True,4.4695514
mp-30551,GaFeCo2,-0.228507314375,0.0,0.0,True,FM,5.0977669,225,full,True,5.0977669
mp-865247,GaFeIr2,-0.227981726874999,0.0,0.0,True,FM,4.5438461,225,full,True,4.5438461
mp-1018074,GaFeNi2,-0.209462736874998,0.052179749166668,0.0,True,FM,3.1076826,225,full,True,3.1076826
mp-865170,GaFeRh2,-0.429486869374999,0.0,0.0,True,FM,4.4276779,225,full,True,4.4276779
mp-1184055,GaFeRu2,-0.158175891875,0.0,0.0,True,FM,3.2372357,225,full,True,3.2372357
mp-865895,GaGeRu2,-0.313812595000001,0.0,0.0,False,NM,4.7e-06,225,full,False,4.7e-06
mp-866037,GaNiRh2,-0.341384039375,0.0,0.0,True,FM,2.0008608,225,full,True,2.0008608
mp-631572,GaReAs,0.9276726375,1.225190675000004,0.0,False,NM,0.0060548,216,half,False,0.0060548
mp-865615,GaSiRu2,-0.514142448749999,0.0,0.0,False,NM,4.1e-06,225,full,False,4.1e-06
mp-865746,GaTc2W,-0.174587085000002,0.0,0.0,False,NM,7.450000000000002e-05,225,full,False,7.450000000000002e-05
mp-1184381,Gd2AgAu,-0.5509218812499981,0.0,0.0,True,FM,14.7188982,225,full,True,14.7188982
mp-1184352,Gd2AgHg,-0.387522218124999,0.004464794999996,0.0,True,FM,15.2579527,225,full,True,15.2579527
mp-1184371,Gd2AgIr,-0.566996866249994,0.0,0.0,True,FiM,14.4858761,225,full,True,14.4858761
mp-1006068,Gd2AgRh,-0.505994883749998,0.013761679999994,0.0,True,FiM,14.6533784,225,full,True,14.6533784
mp-1184415,Gd2AgRu,-0.2686155775,0.0,0.0,True,FiM,14.4257652,225,full,True,14.4257652
mp-1184403,Gd2AlCd,-0.379150172499997,0.014697412999996,0.0,True,FM,14.9854178,225,full,True,14.9854178
mp-1184427,Gd2AlZn,-0.372386588749999,0.0155571905,0.0,True,FM,14.9494776,225,full,True,14.9494776
mp-1184362,Gd2CdHg,-0.448362911875001,0.0,0.0,True,FM,15.5652597,225,full,True,15.5652597
mp-1184514,Gd2CdIn,-0.499668987499994,0.0,0.0,True,FM,15.1152576,225,full,True,15.1152576
mp-1184435,Gd2CuAu,-0.513057892499999,0.006988130000001,0.0,True,FM,14.3713047,225,full,True,14.3713047
mp-1184428,Gd2CuOs,-0.179011519999995,0.00238292625,0.0,True,FiM,14.4471245,225,full,True,14.4471245
mp-1184422,Gd2CuRu,-0.236254573749999,0.0,0.0,True,FiM,14.3489004,225,full,True,14.3489004
mp-1184305,Gd2GaAg,-0.455731104791665,0.011580603750001,0.0,True,FM,14.7895553,225,full,True,14.7895553
mp-1184476,Gd2InHg,-0.517009311875,0.034504427499996,0.0,True,FM,15.0094654,225,full,True,15.0094654
mp-1184354,Gd2IrAu,-0.819186280000003,0.0,0.0,True,FM,14.5143864,225,full,True,14.5143864
mp-866029,Gd2IrPd,-0.849852882500002,0.0,0.0,True,FiM,14.3507316,225,full,True,14.3507316
mp-865436,Gd2IrRh,-0.8129959575000001,0.0,0.0,True,FiM,13.8750111,225,full,True,13.8750111
mp-1184393,Gd2IrRu,-0.5345725962500011,0.0,0.0,True,FiM,13.9722656,225,full,True,13.9722656
mp-1184333,Gd2MgAl,-0.264912353750002,0.0,0.0,True,FM,15.2573816,225,full,True,15.2573816
mp-1184409,Gd2MgCd,-0.202455828749999,0.0063684375,0.0,True,FM,15.7583274,225,full,True,15.7583274
mp-864748,Gd2MgIn,-0.330461057916666,0.0,0.0,True,FM,15.2900919,225,full,True,15.2900919
mp-1184399,Gd2MgRu,-0.156911586249999,0.053829730489129,0.0,True,FiM,14.5657074,225,full,True,14.5657074
mp-865316,Gd2MgTl,-0.265233012083335,0.0,0.0,True,FM,15.3268601,225,full,True,15.3268601
mp-1232425,Gd2NiIr,-0.590557852500001,0.0,0.0,True,FiM,14.1424628,225,full,True,14.1424628
mp-1184370,Gd2NiRu,-0.327995215000001,0.0,0.0,True,FiM,13.8100217,225,full,True,13.8100217
mp-1185587,Gd2PdRh,1.775880891250004,2.5988902737500013,0.0,True,FM,2.839089399999999,225,full,True,2.839089399999999
mp-866052,Gd2PdRu,-0.53999386625,0.0,0.0,True,FiM,14.1356284,225,full,True,14.1356284
mp-1184387,Gd2RuRh,-0.519951806249999,0.0,0.0,True,FiM,14.0369542,225,full,True,14.0369542
mp-1184366,Gd2TlAg,-0.364098448749999,0.0,0.0,True,FM,15.0395492,225,full,True,15.0395492
mp-866608,Gd2TlCd,-0.261520202499994,0.138450652499997,0.0,True,FM,14.8404279,225,full,True,14.8404279
mp-1184448,Gd2TlHg,-0.516669036875001,0.0,0.0,True,FM,15.1069228,225,full,True,15.1069228
mp-1184390,Gd2TlZn,-0.400997908749992,0.0,0.0,True,FM,15.1445345,225,full,True,15.1445345
mp-1184380,Gd2ZnAg,-0.276772129999997,0.021224254999999,0.0,True,FM,14.5591728,225,full,True,14.5591728
mp-1184388,Gd2ZnGa,-0.499098979374998,0.0,0.0,True,FM,15.0726735,225,full,True,15.0726735
mp-1184500,Gd2ZnHg,-0.421655403125001,0.0188705475,0.0,True,FM,15.0003366,225,full,True,15.0003366
mp-1184470,Gd2ZnIn,-0.46584832125,0.005926831874997,0.0,True,FM,15.0959475,225,full,True,15.0959475
mp-1184416,Gd2ZnRh,-0.5330636362499981,0.035231865,0.0,True,FiM,14.3979104,225,full,True,14.3979104
mp-866217,Gd2ZnRu,-0.329497107499996,0.0,0.0,True,FiM,14.3627055,225,full,True,14.3627055
mp-863760,CsAcTe2,-1.466690679375005,0.188869338749995,0.8775000000000001,False,NM,0.0,225,full,False,0.0
mp-1183938,CsK2As,-0.239563057913793,0.034550998888889,0.708199999999999,False,NM,0.000750399999999,225,full,False,0.000750399999999
mp-863759,CsK2Bi,-0.5110704906250021,0.0,0.300999999999999,False,NM,0.0,225,full,False,0.0
mp-1185542,CsK2Rb,0.040403377086206,0.040403377086206,0.0,False,NM,0.004350199999999,225,full,False,0.004350199999999
mp-581024,CsK2Sb,-0.556562996875001,0.0,0.8633999999999991,False,NM,0.0,225,full,False,0.0
mp-1183953,CsKRb2,0.033288284523706,0.033288284523706,0.0,False,NM,0.0029665,225,full,False,0.0029665
mp-1213008,CsLi2C,1.319436652169539,1.330872397158764,0.0,True,FM,1.0008182,225,full,True,1.0008182
mp-1185546,CsRb2Bi,-0.302958773663794,0.001246811666665,0.1872,False,NM,0.0,225,full,False,0.0
mp-984761,CsRb2Sb,-0.375607383663792,0.002607079166668,0.6525000000000001,False,NM,0.0,225,full,False,0.0
mp-1009547,CsRbAs,-0.140662314885058,0.149074960115741,0.0,True,FM,1.0000054,216,half,True,1.0000054
mp-1183931,CsRbAu2,-0.279934621788791,0.007469657500003,0.7103,False,NM,0.0,225,full,False,0.0
mp-1009541,CsRbN,0.646898569281608,0.71040757979885,0.0,True,FM,0.9998467,216,half,True,0.9998467
mp-1009544,CsRbP,-0.003294933932676,0.249071190316093,0.0,True,FM,1.0000074,216,half,True,1.0000074
mp-1225788,Cu2NiSb,0.147306995000001,0.274419545,0.0,False,NM,7.790000000000001e-05,225,full,False,7.790000000000001e-05
mp-4367,Cu2NiSn,0.04159868375,0.161916670982142,0.0,False,NM,2.2700000000000003e-05,225,full,False,2.2700000000000003e-05
mp-862256,Cu2PdAu,-0.115284392500001,0.0,0.0,False,NM,1e-07,225,full,False,1e-07
mp-1225652,CuAgTe,0.079121924166666,0.154785069166667,0.0,False,NM,0.0004567,216,half,False,0.0004567
mp-867917,CuGeRh2,-0.390969489999999,0.0,0.0,False,NM,7e-07,225,full,False,7e-07
mp-631427,CuIrBr,1.000008725,1.345083539999998,0.0,False,NM,0.0686475,216,half,False,0.0686475
mp-30069,CuNi2Sb,-0.074115269166666,0.052997280833332,0.0,False,NM,1.62e-05,225,full,False,1.62e-05
mp-30592,CuNi2Sn,-0.135795281249999,0.034833898541666,0.0,False,NM,1.33e-05,225,full,False,1.33e-05
mp-631418,CuRe2Cl,1.20220839472222,1.459348469305553,0.0,False,NM,1.42e-05,225,full,False,1.42e-05
mp-1184104,CuRh2Pb,-0.034997475,0.033348483333334,0.0,False,NM,1.3e-05,225,full,False,1.3e-05
mp-867753,CuSbRh2,-0.295379342500002,0.0,0.0,False,NM,0.0014219,225,full,False,0.0014219
mp-631422,CuSiBr,0.5012402783333331,1.051741965493054,0.0,False,NM,1.3600000000000002e-05,216,half,False,1.3600000000000002e-05
mp-978532,CuSiRh2,-0.567489621249997,0.0,0.0,False,NM,4e-07,225,full,False,4e-07
mp-1184057,CuSnPd2,-0.381484502499997,0.008409521874998,0.0,False,NM,7e-07,225,full,False,7e-07
mp-30595,CuSnRh2,-0.348417891249998,0.0,0.0,False,NM,8.099999999999999e-06,225,full,False,8.099999999999999e-06
mp-631463,CuTcBi,0.6814291816666671,0.6814291816666651,0.0,False,NM,0.003199699999999,216,half,False,0.003199699999999
mp-1184089,Dy2AgAu,-0.5903140237499951,0.010139592500003,0.0,False,NM,3.399999999999998e-06,225,full,False,3.399999999999998e-06
mp-864981,Dy2AgIr,-0.605460821249996,0.019135924910715,0.0,False,NM,0.001131799999999,225,full,False,0.001131799999999
mp-864977,Dy2AgOs,-0.274108186249996,0.028420607124999,0.0,False,NM,0.003261,225,full,False,0.003261
mp-865161,Dy2AgRu,-0.352306718749997,0.0,0.0,False,NM,1.3e-06,225,full,False,1.3e-06
mp-865159,Dy2AlZn,-0.423186521250002,0.012720849374996,0.0,False,NM,8.69e-05,225,full,False,8.69e-05
mp-864973,Dy2CdIn,-0.388437054999998,0.0,0.0,False,NM,0.0013069,225,full,False,0.0013069
mp-864963,Dy2CuIr,-0.5949425783333301,0.018821488402776,0.0,False,NM,8.180000000000002e-05,225,full,False,8.180000000000002e-05
mp-864959,Dy2CuOs,-0.312509537499998,0.00652766260714,0.0,False,NM,9e-07,225,full,False,9e-07
mp-1184094,Dy2CuPt,-0.8292689349999941,0.039158765499969,0.0,False,NM,1.33e-05,225,full,False,1.33e-05
mp-864960,Dy2CuRh,-0.55877168833333,0.015834585089285,0.0,False,NM,0.0004032,225,full,False,0.0004032
mp-865220,Dy2CuRu,-0.333347355833331,0.0,0.0,False,NM,9e-07,225,full,False,9e-07
mp-1184152,Dy2GaAg,-0.455249298124997,0.017789646250001,0.0,False,NM,2.6e-06,225,full,False,2.6e-06
mp-1184170,Dy2InAg,-0.387366120416663,0.0,0.0,False,NM,1.23e-05,225,full,False,1.23e-05
mp-984660,Dy2InHg,-0.582496736875,0.003248692500001,0.0,True,FM,0.5355196,225,full,True,0.5355196
mp-984104,Dy2IrAu,-0.834701708333328,0.011410145267859,0.0,False,NM,4.2e-06,225,full,False,4.2e-06
mp-865221,Dy2IrPd,-0.9080338508333312,0.0,0.0,False,NM,2.1e-06,225,full,False,2.1e-06
mp-864999,Dy2IrRh,-0.8725378233333301,0.0,0.0,False,NM,0.000204499999999,225,full,False,0.000204499999999
mp-865219,Dy2IrRu,-0.609520068333332,0.016699284598213,0.0,False,NM,0.0,225,full,False,0.0
mp-865006,Dy2MgAl,-0.25568068708333,0.0,0.0,False,NM,0.0,225,full,False,0.0
mp-1184111,Dy2MgCd,-0.168075144583331,0.008242707499999,0.0,False,NM,2.9800000000000003e-05,225,full,False,2.9800000000000003e-05
mp-1184078,Dy2MgGa,-0.32264315645833,0.037500251840277,0.0,False,NM,0.006934999999999,225,full,False,0.006934999999999
mp-865007,Dy2MgIn,-0.298421086249998,0.0,0.0,False,NM,7.37e-05,225,full,False,7.37e-05
mp-867349,Dy2MgTl,-0.214587415416664,0.014710298750004,0.0,False,NM,0.0001043,225,full,False,0.0001043
mp-864886,Dy2NiIr,-0.64992929333333,0.025301895902771,0.0,False,NM,0.012771999999999,225,full,False,0.012771999999999
mp-864917,Dy2NiRu,-0.388834345833329,0.002463664296875,0.0,False,NM,0.000355699999999,225,full,False,0.000355699999999
mp-984534,Dy2OsPd,-0.603532545749999,0.041411439625001,0.0,False,NM,4.9800000000000025e-05,225,full,False,4.9800000000000025e-05
mp-1184072,Dy2PdRh,-0.879749865833332,0.004430349999998,0.0,False,NM,2.8e-06,225,full,False,2.8e-06
mp-865216,Dy2PdRu,-0.6453013658333311,0.0,0.0,False,NM,2.299999999999998e-06,225,full,False,2.299999999999998e-06
mp-865222,Dy2RuRh,-0.6174674008333301,0.0,0.0,False,NM,1.54e-05,225,full,False,1.54e-05
mp-866008,Dy2TlAg,-0.332413599583333,0.0,0.0,False,NM,0.0382866,225,full,False,0.0382866
mp-866005,Dy2TlCd,-0.323174806666666,0.0,0.0,False,NM,0.003017299999999,225,full,False,0.003017299999999
mp-1184105,Dy2TlHg,-0.519289754375002,0.0,0.0,True,FM,0.7234225,225,full,True,0.7234225
mp-1184139,Dy2TlIn,-0.518488357499997,0.0032452075,0.0,False,NM,9.4e-06,225,full,False,9.4e-06
mp-1184062,Dy2TlZn,-0.410883863750001,0.034183022812502,0.0,False,NM,0.0026527,225,full,False,0.0026527
mp-1184095,Dy2ZnAg,-0.319737936249998,0.012252259999998,0.0,False,NM,8.140000000000001e-05,225,full,False,8.140000000000001e-05
mp-865156,Dy2ZnGa,-0.549740276250002,0.020627927031249,0.0,False,NM,0.0001052,225,full,False,0.0001052
mp-984627,Dy2ZnHg,-0.463977093125002,0.019809982499999,0.0,False,NM,0.0191864,225,full,False,0.0191864
mp-865157,Dy2ZnIn,-0.489033941249999,0.026644959166645,0.0,False,NM,0.000210999999999,225,full,False,0.000210999999999
mp-984544,Dy2ZnIr,-0.63316236083333,0.025593913958332,0.0,False,NM,0.012335299999999,225,full,False,0.012335299999999
mp-865004,Dy2ZnOs,-0.352012121500003,0.030801713624999,0.0,False,NM,0.0006855,225,full,False,0.0006855
mp-1184070,Dy2ZnPt,-0.7873374608333301,0.026896888124999,0.0,False,NM,3.4500000000000005e-05,225,full,False,3.4500000000000005e-05
mp-1184107,Dy2ZnRh,-0.5988679583333301,0.021729058839285,0.0,False,NM,0.0141772,225,full,False,0.0141772
mp-865017,Dy2ZnRu,-0.363632353333332,0.0,0.0,False,NM,2.7e-05,225,full,False,2.7e-05
mp-867898,DyAgHg2,-0.329545077083334,0.0,0.0,False,NM,4e-07,225,full,False,4e-07
mp-862263,DyAlAg2,-0.327052793749999,0.000884210027777,0.0,False,NM,2e-07,225,full,False,2e-07
mp-1009543,DyBiPd,-1.049426923333338,0.0,0.0,False,NM,1e-07,216,half,False,1e-07
mp-30453,DyBiPt,-1.183137906666663,0.0,0.0,False,NM,6e-07,216,half,False,6e-07
mp-867256,DyCdAg2,-0.268829113749997,0.0,0.0,False,NM,5.1900000000000015e-05,225,full,False,5.1900000000000015e-05
mp-867827,DyCdAu2,-0.660763370416662,0.0,0.0,False,NM,1e-07,225,full,False,1e-07
mp-864884,DyCdHg2,-0.351799891666668,0.0,0.0,False,NM,1e-07,225,full,False,1e-07
mp-867276,DyCdPd2,-0.724428725416665,0.0,0.0,False,NM,1e-07,225,full,False,1e-07
mp-1183773,DyCdPt2,-0.8120568879166631,0.017505361000004,0.0,False,NM,9.3e-06,225,full,False,9.3e-06
mp-867900,DyCdRh2,-0.555099917916664,0.000841602499998,0.0,False,NM,8.4e-06,225,full,False,8.4e-06
mp-1183800,DyErAg2,-0.326064001249998,0.0060732125,0.0,False,NM,1.51e-05,225,full,False,1.51e-05
mp-1183795,DyErAl2,-0.453691558020832,0.021912060937502,0.0,False,NM,0.0005197,225,full,False,0.0005197
mp-1183828,DyErCd2,-0.290402317916662,0.005778322500001,0.0,False,NM,9e-06,225,full,False,9e-06
mp-1183862,DyErCu2,-0.268940989583335,0.006264557499999,0.0,False,NM,6e-06,225,full,False,6e-06
mp-1183794,DyErRh2,-0.9032437479166652,0.009445557499999,0.0,False,NM,0.0006085,225,full,False,0.0006085
mp-1183783,DyErRu2,-0.352526147916666,0.007821692124997,0.0,False,NM,5.1100000000000016e-05,225,full,False,5.1100000000000016e-05
mp-1183804,DyErTl2,-0.317436559583336,0.0,0.0,False,NM,0.0004482,225,full,False,0.0004482
mp-1183842,DyErZn2,-0.384624007083331,0.00683579,0.0,False,NM,0.057798199999999,225,full,False,0.057798199999999
mp-862666,DyGaRh2,-0.814781299791663,0.0,0.0,False,NM,2.6e-06,225,full,False,2.6e-06
mp-1183820,DyHoHg2,-0.581035958749999,0.0,0.0,False,NM,3.7e-06,225,full,False,3.7e-06
mp-984767,DyHoIn2,-0.440304562499996,0.0,0.0,False,NM,1.3400000000000002e-05,225,full,False,1.3400000000000002e-05
mp-984768,DyHoIr2,-0.8447974666666621,0.001808007767859,0.0,True,FM,0.2367287,225,full,True,0.2367287
mp-862692,DyHoMg2,-0.052797641666664,0.002089764999999,0.0,False,NM,0.0002048,225,full,False,0.0002048
mp-1183786,DyHoRu2,-0.333420509166662,0.01151195090625,0.0,False,NM,5.1e-05,225,full,False,5.1e-05
mp-1183780,DyHoTl2,-0.436759467500003,0.002528027499998,0.0,False,NM,0.0001247,225,full,False,0.0001247
mp-1183799,DyHoZn2,-0.340149279166663,0.001764522499998,0.0,False,NM,0.0051375,225,full,False,0.0051375
mp-20898,DyInAg2,-0.358901477916665,0.0,0.0,False,NM,3.2e-06,225,full,False,3.2e-06
mp-30374,DyInAu2,-0.7004257995833301,0.0,0.0,False,NM,7.499999999999998e-06,225,full,False,7.499999999999998e-06
mp-22680,DyInCu2,-0.377911758750002,0.032599943055554,0.0,False,NM,4.8e-06,225,full,False,4.8e-06
mp-30606,DyInPd2,-0.8824236862500001,0.0,0.0,False,NM,2e-07,225,full,False,2e-07
mp-861892,DyInRh2,-0.7474745770833301,0.0,0.0,False,NM,3e-07,225,full,False,3e-07
mp-1183791,DyLuAg2,-0.330061112916664,0.0,0.0,False,NM,9.550000000000004e-05,225,full,False,9.550000000000004e-05
mp-1183826,DyLuCd2,-0.285665132083329,0.003907237500001,0.0,False,NM,7.699999999999999e-06,225,full,False,7.699999999999999e-06
mp-1183810,DyLuCu2,-0.285454125416666,0.0,0.0,False,NM,0.0009159,225,full,False,0.0009159
mp-1183792,DyLuHg2,-0.5662937691666691,0.0,0.0,False,NM,5.7e-06,225,full,False,5.7e-06
mp-1183806,DyLuIn2,-0.546998670416666,0.014436091018499,0.0,False,NM,2.34e-05,225,full,False,2.34e-05
mp-1183808,DyLuIr2,-0.9026783645833312,0.010368025267858,0.0,False,NM,0.1798736,225,full,False,0.1798736
mp-866295,DyLuMg2,-0.04306361208333,0.001673990000002,0.0,False,NM,3e-07,225,full,False,3e-07
mp-1183831,DyLuRh2,-0.939634862083333,0.014202254999998,0.0,False,NM,3.67e-05,225,full,False,3.67e-05
mp-1183818,DyLuRu2,-0.390451564583332,0.010865141796875,0.0,False,NM,0.000170999999999,225,full,False,0.000170999999999
mp-1183789,DyLuTl2,-0.286221148750002,0.000284762499997,0.0,False,NM,0.0001512,225,full,False,0.0001512
mp-1183798,DyLuZn2,-0.395412452916666,0.003563174999996,0.0,False,NM,0.0009333,225,full,False,0.0009333
mp-1183781,DyMg2Sc,-0.035595971666664,0.009496614375,0.0,False,NM,0.0002876,225,full,False,0.0002876
mp-862680,DyMgAg2,-0.298133702499997,0.0,0.0,False,NM,7.099999999999996e-06,225,full,False,7.099999999999996e-06
mp-867762,DyMgAu2,-0.771047359166663,0.0,0.0,False,NM,1.93e-05,225,full,False,1.93e-05
mp-867773,DyMgCd2,-0.277625719166664,0.0,0.0,False,NM,1.1e-06,225,full,False,1.1e-06
mp-867826,DyMgHg2,-0.444099090416665,0.0,0.0,False,NM,2e-06,225,full,False,2e-06
mp-867831,DyMgRh2,-0.7065420116666641,0.0,0.0,False,NM,2.8e-06,225,full,False,2.8e-06
mp-866007,DyMgTl2,-0.191325248333335,0.038983076944445,0.0,False,NM,0.0011994,225,full,False,0.0011994
mp-865142,DyMgZn2,-0.335331704166665,0.0,0.0,False,NM,5.799999999999999e-06,225,full,False,5.799999999999999e-06
mp-866126,DyNbRu2,-0.290990315416667,0.0,0.0,False,NM,1e-07,225,full,False,1e-07
mp-30452,DyNiBi,-0.668153847222222,0.0,0.2084,False,NM,0.0,216,half,False,0.0
mp-4510,DyNiSb,-0.964084313888886,0.0,0.3123,False,NM,0.0,216,half,False,0.0
mp-1183816,DyNpRu2,-0.193064365104165,0.0489137546875,0.0,True,FiM,2.8537681,225,full,True,2.8537681
mp-867279,DyPaRu2,-0.390953902916667,0.0,0.0,False,NM,0.000433299999999,225,full,False,0.000433299999999
mp-867278,DyPaTc2,-0.16986982625,0.042047138749985,0.0,False,NM,7.4e-06,225,full,False,7.4e-06
mp-11242,DyPbAu,-0.674255037222226,0.0,0.0,False,NM,0.0,216,half,False,0.0
mp-1206592,DyPd2Pb,-0.699516410416663,0.0173719675,0.0,False,NM,1.04e-05,225,full,False,1.04e-05
mp-1183779,DyRh2Pb,-0.554437200416664,0.001504319999998,0.0,True,FM,0.886608899999999,225,full,True,0.886608899999999
mp-1225491,DySbPd,-1.120842200555551,0.0,0.229899999999999,False,NM,0.0,216,half,False,0.0
mp-16327,DySbPt,-1.214195870555552,0.0,0.049299999999999,False,NM,0.0,216,half,False,0.0
mp-1184063,DySbRh2,-0.7187644579166641,0.105514574999998,0.0,False,NM,0.0029915,225,full,False,0.0029915
mp-1184087,DyScRu2,-0.415328789166665,0.023295404296874,0.0,False,NM,0.000777199999999,225,full,False,0.000777199999999
mp-1184079,DyScZn2,-0.349546279166665,0.011683419999998,0.0,False,NM,0.000217,225,full,False,0.000217
mp-866287,DySnAu2,-0.6910928916666661,0.0,0.0,False,NM,0.0,225,full,False,0.0
mp-21014,DySnPd2,-0.8744328691666721,0.0,0.0,False,NM,1.4e-06,225,full,False,1.4e-06
mp-866290,DySnRh2,-0.791853919166663,0.0,0.0,False,NM,0.0187305,225,full,False,0.0187305
mp-865358,DySnRu2,-0.354631731666665,0.000642096666666,0.0,False,NM,0.0002559,225,full,False,0.0002559
mp-1184076,DyTaOs2,-0.28093021551389,0.103928737249994,0.0,False,NM,0.0001102,225,full,False,0.0001102
mp-865364,DyTaRu2,-0.356988389749998,0.0,0.0,False,NM,1.85e-05,225,full,False,1.85e-05
mp-1184103,DyThRu2,-0.424819347916663,0.010470128046874,0.0,False,NM,0.000252999999999,225,full,False,0.000252999999999
mp-866011,DyThTc2,-0.084714211956772,0.110265480625002,0.0,False,NM,0.0008167,225,full,False,0.0008167
mp-1184061,DyTlRh2,-0.5410078687500021,0.014933651666661,0.0,False,NM,2.7e-06,225,full,False,2.7e-06
mp-1184080,DyTmAg2,-0.326915708749999,0.006113049999999,0.0,False,NM,1.79e-05,225,full,False,1.79e-05
mp-1184116,DyTmCd2,-0.287128220416666,0.0055485525,0.0,False,NM,1.43e-05,225,full,False,1.43e-05
mp-1184109,DyTmCu2,-0.27760004625,0.005752262499999,0.0,False,NM,1.3900000000000002e-05,225,full,False,1.3900000000000002e-05
mp-1184135,DyTmHg2,-0.575390115000004,0.0,0.0,False,NM,7.099999999999996e-06,225,full,False,7.099999999999996e-06
mp-1184137,DyTmIn2,-0.567397001249999,0.007347782222201,0.0,False,NM,4.1e-06,225,full,False,4.1e-06
mp-1184120,DyTmIr2,-0.879266512916667,0.005249275267857,0.0,True,FM,0.205810599999999,225,full,True,0.205810599999999