material_id,formula,formation_energy,ehull,band_gap,is_magnetic_x,magnetic_ordering,total_magnetization_x,spacegroup,heusler_type,is_magnetic_y,total_magnetization_y
mp-977547,MgZnRh2,-0.42482178875,0.0,0.0,False,NM,2.1e-06,225,full,False,2.1e-06
mp-864920,MgZrAu2,-0.59993698875,0.0,0.0,False,NM,7.299999999999999e-06,225,full,False,7.299999999999999e-06
mp-864921,MgZrIr2,-0.7444724137499971,0.0,0.0,False,NM,2.299999999999998e-06,225,full,False,2.299999999999998e-06
mp-1185624,MgZrNi2,-0.331953008749999,0.011208180625001,0.0,False,NM,6.75e-05,225,full,False,6.75e-05
mp-864907,MgZrPd2,-0.691977061249999,0.0,0.0,False,NM,8.9e-06,225,full,False,8.9e-06
mp-1185625,MgZrPt2,-0.952026491249999,0.0,0.0,False,NM,1.6e-06,225,full,False,1.6e-06
mp-864910,MgZrRh2,-0.786348676249999,0.0,0.0,False,NM,0.0,225,full,False,0.0
mp-1185622,MgZrZn2,-0.19886775625,0.02804667,0.0,False,NM,1e-07,225,full,False,1e-07
mp-13079,Mn2AlCo,-0.272630423965517,0.026833108534482,0.0,True,FiM,2.0003178,216,full,True,2.0003178
mp-864988,Mn2AlCr,-0.161058886465517,0.0,0.0,True,FiM,4.3145458,225,full,True,4.3145458
mp-864989,Mn2AlRe,-0.197732694590518,0.0,0.0,False,NM,2.92e-05,225,full,False,2.92e-05
mp-10895,Mn2AlV,-0.317624613965518,0.0,0.0,True,FiM,4.2228412,225,full,True,4.2228412
mp-864990,Mn2AlW,-0.215194671465516,0.0,0.0,True,FiM,1.0072506,225,full,True,1.0072506
mp-1017515,Mn2CoAs,-0.071581708340517,0.128373048017241,0.0,True,FM,4.0004775,216,full,True,4.0004775
mp-22289,Mn2CoGe,-0.150149415215517,0.012225218749999,0.0,True,FiM,3.0000195,216,full,True,3.0000195
mp-13085,Mn2CoSb,-0.002062143965517,0.12750657895474,0.0,True,FM,4.0,216,full,True,4.0
mp-13082,Mn2CoSi,-0.345258373965517,0.02406287125,0.0,True,FiM,2.9999044,216,full,True,2.9999044
mp-22465,Mn2CoSn,0.128677697284482,0.182810625150861,0.0,True,FM,7.3245644,216,full,True,7.3245644
mp-864955,Mn2CrCo,-0.042264301465516,0.0,0.0,True,FiM,5.0001611,225,full,True,5.0001611
mp-1185616,Mn2CrSi,-0.164173055991378,0.143966067543104,0.0,False,NM,0.020056499999999,225,full,False,0.020056499999999
mp-1065918,Mn2CuGe,0.137755707284482,0.2098952440625,0.0,True,FM,3.934521,216,full,True,3.934521
mp-999566,Mn2CuSb,0.132716110775863,0.294273419267241,0.0,True,FM,4.773776,216,full,True,4.773776
mp-20160,Mn2GaCo,-0.002558845840517,0.14761122676724,0.0,True,FM,6.9081243,216,full,True,6.9081243
mp-1206407,Mn2GaNi,-0.180178575711206,0.137410719030171,0.0,True,FM,7.341856,225,full,True,7.341856
mp-1221872,Mn2GaRh,-0.157464238340517,0.182515538534482,0.0,True,FM,6.73518,216,full,True,6.73518
mp-976082,Mn2GaW,0.02212211775862,0.158442728879311,0.0,True,FiM,0.9990005,225,full,True,0.9990005
mp-1221898,Mn2GeRu,-0.188874247715517,0.0,0.0,True,FiM,0.9151771,216,full,True,0.9151771
mp-22276,Mn2InCo,0.214481289367816,0.222707588958333,0.0,True,FM,7.9943685,216,full,True,7.9943685
mp-1185981,Mn2IrRh,-0.16910753646551,0.0,0.0,True,FM,8.1340832,225,full,True,8.1340832
mp-865011,Mn2NbAl,-0.256541261465518,0.0,0.0,True,FiM,1.9962826999999992,225,full,True,1.9962826999999992
mp-1185972,Mn2NbGa,-0.226331369427384,0.008682127890626,0.0,True,FiM,2.0020055,225,full,True,2.0020055
mp-1206364,Mn2NiSb,-0.119495010474139,0.213567548017241,0.0,True,FM,4.6604055,216,full,True,4.6604055
mp-1221821,Mn2NiSn,0.067113844784483,0.187431832016625,0.0,True,FM,3.994642299999999,216,full,True,3.994642299999999
mp-1185926,Mn2PdPt,-0.284900688965517,0.0,0.0,True,FM,9.2097234,225,full,True,9.2097234
mp-865032,Mn2PtRh,-0.281578073965516,0.0,0.0,True,FM,9.1403288,225,full,True,9.1403288
mp-999558,Mn2SiNi,-0.38401348176343,0.081615869227942,0.0,True,FM,3.876892,216,full,True,3.876892
mp-1014005,Mn2SiRh,-0.21753229692888,0.3316169275,0.0,True,FM,7.2410637,225,full,True,7.2410637
mp-999576,Mn2SiRu,-0.440152907241378,0.018106028807473,0.0,True,FiM,1.998527,216,full,True,1.998527
mp-999557,Mn2SnRu,0.049300554870686,0.169589086528212,0.0,True,FM,7.1484371,216,full,True,7.1484371
mp-22610,Mn2SnW,0.163921424784483,0.163921424784483,0.0,False,NM,0.000109499999999,225,full,False,0.000109499999999
mp-21235,Mn2VGa,-0.38250483224138,0.0,0.0,True,FiM,4.4149171,225,full,True,4.4149171
mp-865554,Mn2VGe,-0.277524035215515,0.0,0.0,True,FiM,1.0002615,225,full,True,1.0002615
mp-1206609,Mn2VIn,0.133180506896547,0.232250125517239,0.0,True,FiM,4.026682,225,full,True,4.026682
mp-865026,Mn2VSi,-0.457836000991379,0.0,0.0,True,FiM,1.000205,225,full,True,1.000205
mp-1206646,Mn2VSn,0.040932795646547,0.14000241426724,0.0,True,FiM,0.99199,225,full,True,0.99199
mp-1185976,MnAl2Tc,-0.316107403232759,0.019719858214287,0.0,True,FM,3.319499,225,full,True,3.319499
mp-5491,MnAlAu2,-0.247918254482758,0.0,0.0,True,FM,4.151378,225,full,True,4.151378
mp-3623,MnAlCo2,-0.356646874482758,0.0,0.0,True,FM,4.1265224,225,full,True,4.1265224
mp-3574,MnAlCu2,-0.130849419482758,0.040840364511494,0.0,True,FM,3.5015772,225,full,True,3.5015772
mp-1221620,MnAlFe2,-0.133765804482759,0.056904699999999,0.0,True,FM,6.9721748,216,full,True,6.9721748
mp-31185,MnAlFe2,-0.190670504482758,0.0,0.0,True,FiM,1.9997293999999992,225,full,True,6.9721748
mp-1221621,MnAlIr,-0.209027689310345,0.430290770689656,0.0,True,FM,3.983836,216,half,True,3.983836
mp-864950,MnAlIr2,-0.5906594619827561,0.0,0.0,True,FM,4.0661988,225,full,True,4.0661988
mp-4922,MnAlNi2,-0.404369411982758,0.0,0.0,True,FM,4.8484509,225,full,True,4.8484509
mp-864951,MnAlOs2,-0.261294584482758,0.0,0.0,True,FiM,2.1383335,225,full,True,2.1383335
mp-10891,MnAlPd2,-0.593034279482758,0.03033693926724,0.0,True,FM,4.0352245,225,full,True,4.0352245
mp-10893,MnAlPt2,-0.6880260594827581,0.006286891875,0.0,True,FM,4.106985,225,full,True,4.106985
mp-10894,MnAlRh2,-0.683740049482759,0.0,0.0,True,FM,4.3601136,225,full,True,4.3601136
mp-864980,MnAlRu2,-0.414138186982759,0.0,0.0,True,FiM,2.1546744,225,full,True,2.1546744
mp-631551,MnAlTc,0.45283255235632,0.750800328678161,0.0,True,FM,3.7666111,216,half,True,3.7666111
mp-1221624,MnAlV2,-0.155377079482758,0.100048229999996,0.0,True,FiM,1.998056,216,full,True,1.998056
mp-12559,MnAsPd2,-0.238381408857758,0.064813152499996,0.0,True,FM,4.1788836,225,full,True,4.1788836
mp-978261,MnBe2Co,-0.235634711982759,0.004891544008621,0.0,True,FM,3.0818405,225,full,True,3.0818405
mp-864943,MnBe2Ir,-0.452840554482757,0.0,0.0,True,FM,3.3819279,225,full,True,3.3819279
mp-864944,MnBe2Pt,-0.476433381982759,0.0,0.0,True,FM,3.5302834,225,full,True,3.5302834
mp-864945,MnBe2Rh,-0.414552101982758,0.0,0.0,True,FM,3.3721586,225,full,True,3.3721586
mp-1185985,MnBe2Ru,-0.225344529482758,0.02372113051724,0.0,True,FM,3.4236975,225,full,True,3.4236975
mp-1185986,MnBeIr2,-0.36191984073276,0.0,0.0,True,FM,3.1242003,225,full,True,3.1242003
mp-1185984,MnBeRu2,-0.114185958232758,0.012340230883621,0.0,True,FiM,1.9705214,225,full,True,1.9705214
mp-19850,MnCo2Ge,-0.249638640732759,0.0,0.0,True,FM,5.0221034,225,full,True,5.0221034
mp-5396,MnCo2Sb,-0.132216656982759,0.0,0.0,True,FM,6.0001644,225,full,True,6.0001644
mp-4492,MnCo2Si,-0.424367394482758,0.0,0.0,True,FM,5.0000746,225,full,True,5.0000746
mp-20840,MnCo2Sn,-0.108265855732759,0.0,0.0,True,FM,5.1724073,225,full,True,5.1724073
mp-1008876,MnCoS,-0.211969025143678,0.286228594952381,0.0,True,FM,3.9991223,216,half,True,3.9991223
mp-1221616,MnCoSb,0.256170344022988,0.428928641249998,0.0,True,FiM,3.219458099999999,216,half,True,3.219458099999999
mp-1221625,MnCoSb,0.148180990689655,0.320939287916665,0.0,True,FM,3.6784555,216,half,True,3.219458099999999
mp-1221866,MnCoSb,-0.153660003893678,0.019098293333332,0.0,True,FiM,28.1976776,216,half,True,3.219458099999999
mp-5318,MnCoSb,-0.126204628477009,0.04655366875,0.0,True,FiM,3.1140976,216,half,True,3.219458099999999
mp-570203,MnCoSb,-0.17275829722701,0.0,0.0,True,FM,35.8653329,225,half,True,3.219458099999999
mp-1008873,MnCoSe,-0.209525096758261,0.185985739999999,0.0,True,FM,3.999721,216,half,True,3.999721
mp-961696,MnCoSi,-0.177972692643678,0.257523189583333,0.0,True,FM,2.0037818,216,half,True,2.0037818
mp-1008874,MnCoTe,-0.2192231248659,0.035686802916664,0.0,True,FM,3.9989906,216,half,True,3.9989906
mp-631383,MnCrRe,0.7117488023563201,0.7117488023563211,0.0,True,FiM,3.4814672,216,half,True,3.4814672
mp-16320,MnCu2Sb,0.088070613879308,0.239864488749999,0.0,True,FM,3.9634071,225,full,True,3.9634071
mp-22221,MnCu2Sn,0.096833880517241,0.096833880517241,0.0,True,FM,3.9029962,225,full,True,3.9029962
mp-864946,MnCuPd2,-0.223007231982759,0.0,0.0,True,FM,4.6220444,225,full,True,4.6220444
mp-1185992,MnCuPt2,-0.260541699482757,0.019051700833335,0.0,True,FM,4.1462434,225,full,True,4.1462434
mp-5866,MnCuSb,-0.085109634827588,0.117282198333331,0.0,True,FM,4.4525585,216,half,True,4.4525585
mp-1018071,MnFe2Ge,-0.110015218232758,0.019479251666666,0.0,True,FM,3.0098555,225,full,True,3.0098555
mp-1206366,MnFe2P,-0.240129855643473,0.176942335625,0.0,True,FM,4.0001074,225,full,True,4.0001074
mp-5529,MnFe2Si,-0.319189419482758,0.0,0.0,True,FM,3.0000767,225,full,True,3.0000767
mp-1008872,MnFeTe,-0.108585671532567,0.122411866522988,0.0,True,FiM,3.0017881,216,half,True,3.0017881
mp-623453,MnGa2Co,-0.091871478232759,0.1189940825,0.0,True,FM,3.4758773,225,full,True,3.4758773
mp-1206866,MnGa2Ni,-0.236695576695399,0.12461850525862,0.0,True,FM,3.0652448,225,full,True,3.0652448
mp-865200,MnGa2Tc,-0.153827744037354,0.028227944583335,0.0,True,FM,3.0391813,225,full,True,3.0391813
mp-21171,MnGaCo2,-0.230197231357758,0.0,0.0,True,FM,4.4203873,225,full,True,4.4203873
mp-1018046,MnGaFe2,-0.005847823857759,0.108506582782865,0.0,True,FM,4.8681045,225,full,True,4.8681045
mp-1206694,MnGaIr,0.059754581522989,0.393122196770834,0.0,True,FM,4.0582729,216,half,True,4.0582729
mp-865088,MnGaIr2,-0.355088436357757,0.0,0.0,True,FM,4.1402086,225,full,True,4.1402086
mp-20228,MnGaNi2,-0.414089973620688,0.012727527499999,0.0,True,FM,4.7814655,225,full,True,4.7814655
mp-1186004,MnGaPd2,-0.467932353857756,0.016125591142243,0.0,True,FM,4.3750791,225,full,True,4.3750791
mp-20269,MnGaPt,-0.181279585143677,0.272883866666667,0.0,True,FM,3.3205524,216,half,True,3.3205524
mp-864948,MnGaPt2,-0.479038481357758,0.009056291874999,0.0,True,FM,4.3963889,225,full,True,4.3963889
mp-864949,MnGaRh2,-0.5291817238577591,0.0,0.0,True,FM,4.388737,225,full,True,4.388737
mp-1206997,MnGaRu,0.145281113409962,0.47795388323755,0.0,True,FM,4.4704378,216,half,True,4.4704378
mp-865140,MnGaRu2,-0.362688543620691,0.0,0.0,True,FiM,2.1837146,225,full,True,2.1837146
mp-505781,MnGePd2,-0.324724880732758,0.079376263850574,0.0,True,FM,4.0919047,225,full,True,4.0919047
mp-4664,MnGeRh2,-0.438049643232758,0.0,0.0,True,FM,5.005034,225,full,True,5.005034
mp-864936,MnGeRu2,-0.268847135732757,0.0,0.0,True,FiM,3.1002186,225,full,True,3.1002186
mp-632623,MnIn2W,0.702948825517243,0.702948825517243,0.0,True,FiM,1.0337411,216,full,True,1.0337411
mp-22673,MnInCu2,0.054852823195815,0.0814593251601,0.0,True,FM,3.8443755,225,full,True,3.8443755
mp-22731,MnInNi2,-0.249330877442528,0.03854070617816,0.0,True,FM,4.1250437,225,full,True,4.1250437
mp-31328,MnInPd2,-0.391472963649423,0.0,0.0,True,FM,4.4898976,225,full,True,4.4898976
mp-864968,MnInRh2,-0.553888846120688,0.0,0.0,True,FM,4.6286935,225,full,True,4.6286935
mp-961666,MnNbAs,0.326080871522987,0.7734095756896561,0.0,True,FiM,2.0681252,216,half,True,2.0681252
mp-864992,MnNbRu2,-0.325736296120691,0.0,0.0,True,FM,4.1942385,225,full,True,4.1942385
mp-22029,MnNi2Ge,-0.223669968232758,0.01854423213362,0.0,True,FM,3.8750977,225,full,True,3.8750977
mp-1221566,MnNi2Sb,-0.151079201954019,0.183603877499997,0.0,True,FM,3.2774947,216,full,True,3.2774947
mp-5124,MnNi2Sb,-0.26645777695402,0.068225302499996,0.0,True,FM,3.9566691,225,full,True,3.2774947
mp-20440,MnNi2Sn,-0.171088353232758,0.011192940535199,0.0,True,FM,4.4403472,225,full,True,4.4403472
mp-510613,MnNiAs,3.540748798189655,3.793629302222221,0.0,True,FM,8.0422537,216,half,True,8.0422537
mp-1062162,MnNiGe,-0.15112398097701,0.108077918333333,0.0,True,FM,3.0016477,216,half,True,3.0016477
mp-1063388,MnNiP,-0.239718967524629,0.314962661666668,0.0,True,FM,4.0021718,216,half,True,4.0021718
mp-22541,MnNiSb,-0.106324901494249,0.320876349999998,0.0,True,FM,3.1103749,216,half,True,3.1103749
mp-600124,MnNiSb,-0.42720125149425,0.0,0.0,True,FM,4.0508132,216,half,True,3.1103749
mp-1185995,MnPd2Au,-0.196563024482756,0.0,0.0,True,FM,4.6866859,225,full,True,4.6866859
mp-631353,MnRePt,0.5821484698563211,0.839013175229887,0.0,True,FM,3.9109624,216,half,True,3.9109624
mp-4652,MnRh2Pb,-0.292826396954019,0.023400835,0.0,True,FM,4.805893,225,full,True,4.805893
mp-5944,MnSbAu,-0.094025364827587,0.185878144166665,0.0,True,FM,4.7025997,216,half,True,4.7025997
mp-10154,MnSbIr,-0.204147135977011,0.126658778333333,0.0,True,FiM,3.1195461,216,half,True,3.1195461
mp-4142,MnSbPd,-0.093836222643677,0.264541150689654,0.0,True,FM,3.2676741,216,half,True,3.2676741
mp-3499,MnSbPd2,-0.327215606982758,0.042539794206895,0.0,True,FM,4.267545099999999,225,full,True,4.267545099999999
mp-567480,MnSbPt,0.007006574022989,0.425867699094828,0.0,True,FM,4.0109601,216,half,True,4.0109601
mp-5676,MnSbPt,-0.364117662643674,0.054743462428165,0.0,True,FM,4.0966095,216,half,True,4.0109601
mp-672356,MnSbPt,-0.097935512643677,0.320925612428161,0.0,True,FM,3.3197687,216,half,True,4.0109601
mp-4846,MnSbRh,-0.367694117637933,0.130227988189648,0.0,True,FM,3.2416968,216,half,True,3.2416968
mp-568891,MnSbRh,-0.160932190971266,0.336989914856317,0.0,True,FM,3.2980945,216,half,True,3.2416968
mp-568983,MnSbRh,-0.175133787637937,0.322788318189648,0.0,True,FM,3.2384576,216,half,True,3.2416968
mp-864957,MnSbRu2,-0.27916170362069,0.0,0.0,True,FM,4.0973926,225,full,True,4.0973926
mp-1062306,MnSiNi,-0.332069869827587,0.241212352499999,0.0,True,FM,3.0004915,216,half,True,3.0004915
mp-999508,MnSiNi2,-0.467382577727308,0.069365845955882,0.0,True,FM,3.7356053,225,full,True,3.7356053
mp-865015,MnSiRh2,-0.776416979870688,0.0,0.0,True,FM,4.9923249,225,full,True,4.9923249
mp-864966,MnSiRu2,-0.582111492370692,0.0,0.0,True,FiM,3.056139,225,full,True,3.056139
mp-864970,MnSiTc2,-0.439775492370692,0.0,0.0,True,FiM,1.6312007,225,full,True,1.6312007
mp-22027,MnSnAu,-0.171871310804595,0.07744045735632,0.0,True,FM,4.0514755,216,half,True,4.0514755
mp-11480,MnSnIr,0.285199079022988,0.511720231249999,0.0,True,FM,3.400703699999999,216,half,True,3.400703699999999
mp-20481,MnSnPd2,-0.411134518232757,0.0,0.0,True,FM,4.3078102,225,full,True,4.3078102
mp-21418,MnSnPt,-0.333554184310344,0.047955984022988,0.0,True,FM,3.5655926,216,half,True,3.5655926
mp-583030,MnSnPt,-0.083635544310344,0.297874624022987,0.0,True,FM,3.3143069,216,half,True,3.5655926
mp-4990,MnSnRh2,-0.435062605732757,0.0,0.0,True,FM,5.0245005,225,full,True,5.0245005
mp-864971,MnSnRu2,-0.227357653620689,0.0,0.0,True,FiM,3.1629512,225,full,True,3.1629512
mp-1186000,MnTc2As,-0.125913528857759,0.006621747499998,0.0,True,FiM,2.0998116,225,full,True,2.0998116
mp-1186026,MnTc2Ge,-0.166263480732759,0.0,0.0,True,FiM,1.5598914,225,full,True,1.5598914
mp-1186002,MnTc2Sb,-0.110705578620688,0.041088296250002,0.0,True,FiM,2.1253155,225,full,True,2.1253155
mp-631280,MnTcOs,0.631918567772994,0.694146287356321,0.0,True,FiM,2.412204,216,half,True,2.412204
mp-631342,MnTcPd,0.475776009022987,0.6104058372758621,0.0,True,FiM,1.2182513,216,half,True,1.2182513
mp-22792,MnTePd,-0.209753254865899,0.174475190689654,0.0,True,FM,4.8395046,216,half,True,4.8395046
mp-622980,MnTePd,-0.003456711532566,0.380771734022986,0.0,True,FM,4.6412311,216,half,True,4.8395046
mp-864953,MnV2Cr,-0.145420086120688,0.0,0.0,True,FiM,0.6323669,225,full,True,0.6323669
mp-1186011,MnV2Fe,-0.191578074482759,0.025323855937498,0.0,True,FiM,0.1218001,225,full,True,0.1218001
mp-865462,MnV2Os,-0.281838733620688,0.011769333879318,0.0,False,NM,1.79e-05,225,full,False,1.79e-05
mp-1186006,MnV2Ru,-0.229747269870689,0.048536869166667,0.0,False,NM,0.0072644,225,full,False,0.0072644
mp-631555,MnVNi,0.560809612672417,0.826440026666666,0.0,True,FM,1.579491,216,half,True,1.579491
mp-864983,MnVRu2,-0.320021453620686,0.0,0.0,True,FM,4.0953342,225,full,True,4.0953342
mp-1186003,MnZnAu2,-0.323000604870689,0.0,0.0,True,FM,4.2199624,225,full,True,4.2199624
mp-864985,MnZnIr2,-0.208689791982758,0.0,0.0,True,FM,3.2582342,225,full,True,3.2582342
mp-1186005,MnZnNi2,-0.170577161982757,0.0,0.0,True,FM,5.0263022,225,full,True,5.0263022
mp-1186001,MnZnPd2,-0.398006396982758,0.0,0.0,True,FM,4.6548684,225,full,True,4.6548684
mp-1186015,MnZnPt2,-0.445890844482756,0.009851775000001,0.0,True,FM,4.6684674,225,full,True,4.6684674
mp-864987,MnZnRh2,-0.452949932370689,0.009981027999998,0.0,True,FM,3.852408999999999,225,full,True,3.852408999999999
mp-631576,MoPt2Br,0.394232728750001,0.921003341249999,0.0,False,NM,0.0604242,216,full,False,0.0604242
mp-554769,MoSBr,-1.107187294166664,0.017180114166663,0.794999999999999,False,NM,0.0,216,half,False,0.0
mp-1210546,MoSCl,-1.000267434409724,0.021415537499999,0.8894000000000001,False,NM,0.00052,216,half,False,0.00052
mp-1210554,MoSI,-0.899989985,0.022877439722221,0.908,False,NM,0.0006265,216,half,False,0.0006265
mp-1221375,Na2CaSi,-0.102518485775862,0.198043762974138,0.1478,False,NM,0.0004239,216,full,False,0.0004239
mp-973056,Na2CdHg,-0.128988431314657,0.011814057857141,0.0,False,NM,4.599999999999997e-06,225,full,False,4.599999999999997e-06
mp-20389,Na2CdPb,-0.132594955689651,0.0,0.0,False,NM,5.299999999999997e-06,216,full,False,5.299999999999997e-06
mp-1186021,Na2HgAu,-0.294989354375001,0.016146524166668,0.0,False,NM,3.7e-06,225,full,False,3.7e-06
mp-631339,Na2LiTa,1.233161440890803,1.233161440890803,0.0,True,FM,3.2870489,216,full,True,3.2870489
mp-1206635,Na2SnHg,-0.238167451250003,0.030109953437499,0.0,False,NM,0.001911999999999,216,full,False,0.001911999999999
mp-631880,Na2SrFe,0.666450399310345,0.666450399310345,0.0,True,FM,2.5148654,225,full,True,2.5148654
mp-631554,Na2TiAu,0.548553906408045,0.826041029324713,0.0,True,FM,0.2151988,225,full,True,0.2151988
mp-864898,Na2TlBi,-0.373143568749998,0.0,0.0,False,NM,1.5e-06,225,full,False,1.5e-06
mp-1221252,Na2TlHg,-0.212804246874998,0.005728764999997,0.0,False,NM,7e-07,216,full,False,7e-07
mp-866132,Na2TlSb,-0.415826112499999,0.0,0.3797,False,NM,0.0,225,full,False,0.0
mp-976072,NaAc2Pb,-0.288835038750001,0.0,0.0,False,NM,0.0048962,225,full,False,0.0048962
mp-976076,NaAc2Sn,-0.341947008750004,0.155159394374997,0.0,False,NM,0.0075955,225,full,False,0.0075955
mp-864803,NaAcAu2,-0.659439259374991,0.004591097499996,0.0,False,NM,3.02e-05,225,full,False,3.02e-05
mp-864806,NaAcHg2,-0.442966260624999,0.0,0.0,False,NM,3e-06,225,full,False,3e-06
mp-1186111,NaAcIn2,-0.392426869374997,0.0,0.0,False,NM,8.7e-06,225,full,False,8.7e-06
mp-865081,NaAcTe2,-1.513576809374996,0.1073713225,0.603399999999999,False,NM,0.0,225,full,False,0.0
mp-865090,NaAcTl2,-0.370772146874998,0.0,0.0,False,NM,3.5e-06,225,full,False,3.5e-06
mp-1186102,NaAg2Sn,-0.0894175725,0.0433913328125,0.0,False,NM,8.7e-06,225,full,False,8.7e-06
mp-1008866,NaAgO,-0.7450613493486581,0.291835399166659,0.0,False,NM,0.0001875,216,half,False,0.0001875
mp-1100391,NaBeSb,-0.087062465459769,0.185790697083333,0.998,False,NM,0.000406599999999,216,half,False,0.000406599999999
mp-1186107,NaBiPd2,-0.29739817541666,0.024249334166661,0.0,False,NM,0.003261499999999,225,full,False,0.003261499999999
mp-976261,NaCa2In,-0.314427968137932,0.031864780362068,0.0,False,NM,0.0355719,225,full,False,0.0355719
mp-1186124,NaCa2Rh,-0.125274541429595,0.089247027320402,0.0,False,NM,5.5600000000000017e-05,225,full,False,5.5600000000000017e-05
mp-865051,NaCa2Tl,-0.298018542500003,0.0,0.0,False,NM,4.460000000000001e-05,225,full,False,4.460000000000001e-05
mp-961685,NaCaAs,-1.0461259208333331,0.0,1.5818999999999992,False,NM,0.0,216,half,False,0.0
mp-865082,NaCaAu2,-0.6131583099999991,0.005945694687497,0.0,False,NM,1.02e-05,225,full,False,1.02e-05
mp-982443,NaCaPb2,-0.329671745344824,0.014449742968751,0.0,False,NM,8.099999999999999e-06,225,full,False,8.099999999999999e-06
mp-1100420,NaCaSb,-0.547006017126435,0.266477417054598,0.824099999999999,False,NM,0.0005845,216,half,False,0.0005845
mp-976236,NaCaTl2,-0.324207004999998,0.015183137500002,0.0,False,NM,2e-07,225,full,False,2e-07