material_id,formula,formation_energy,ehull,band_gap,is_magnetic,magnetic_ordering,total_magnetization,spacegroup
mp-1226473,CeYFe4,-0.001058671666665,0.063229144166666,0.0,True,FiM,7.0517704,216
mp-984048,CeYIn2,-0.587677257499997,0.0,0.0,True,FM,0.8637954,225
mp-866045,CeYMg2,0.00028521250000100004,0.047628005,0.0,True,FM,1.171073,225
mp-1226495,CeYMg4,-0.007632343333332001,0.031748053888889,0.0,True,FM,1.0358444,216
mp-1226560,CeYNi4,-0.37151967499999805,0.025469667638885002,0.0,True,FM,0.0900015,216
mp-1226466,CeYRh4,-0.693877273333331,0.020761707500001003,0.0,True,FM,0.0963396,216
mp-1006256,CeYTl2,-0.460305484999999,0.0,0.0,True,FM,0.6270721,225
mp-984049,CeYZn2,-0.262224127499999,0.020968032500001,0.0,True,FM,1.0158957,225
mp-867186,CeZn2Ag,-0.216130537916665,0.028436172348484,0.0,True,FM,0.8141066,225
mp-1183743,CeZnAu2,-0.532446484999998,0.026783639687497002,0.0,False,NM,0.0176587,225
mp-102,Co,0.0,0.0,0.0,True,FM,1.837999599999999,225
mp-1078734,Co(IN2)3,1.8002741834999991,2.051384565750001,0.0,False,NM,0.0008889999999990001,225
mp-1079998,Co(IN3)2,2.2690249,2.507755488055554,0.0,True,AFM,0.0046503,225
mp-1080142,Co(N2Cl)3,2.437432424500001,2.720263132000002,0.0,True,FM,8.926537100000001,225
mp-1079107,Co(N3Cl)2,2.630067841666667,2.9443241833333342,0.0,True,FM,6.9821823,225
mp-542728,Co21(B3Mo)2,-0.13176031189655302,0.030098912758621,0.0,True,FiM,24.8838793,225
mp-505544,Co21(B3Sb)2,-0.13275699925287401,0.003955021206898,0.0,True,FM,18.1858871,225
mp-672221,Co21(B3W)2,-0.13461393672413902,0.022680707586207,0.0,True,FiM,24.0305885,225
mp-1193515,Co21(GeB3)2,-0.117234390862071,0.01587558689655,0.0,True,FM,24.4682812,225
mp-541852,Co21(ReB3)2,-0.104551050000001,0.029314193965516003,0.0,True,FM,23.1561652,225
mp-542739,Co21(SnB3)2,-0.15994311844827502,0.014465743908045002,0.0,True,FM,20.0466563,225
mp-1194407,Co22B6Sb,-0.04848451902299,0.081428233620689,0.0,True,FM,25.6851217,225
mp-639154,Co23B6,-0.089447522241381,0.033665962586207,0.0,True,FM,35.161039099999996,225
mp-1183689,Co3Cl,0.5875845425,0.9411229268749991,0.0,True,FM,5.0801818,225
mp-1183683,Co3H,0.5262510996875001,0.55222247,0.0,True,FM,4.1346197,225
mp-1226044,Co4CuNiS8,-0.716562197857142,0.005878849285713,0.0,False,NM,0.0010348,216
mp-1226056,Co5CuS8,-0.503141700892854,0.004674237857143,0.0,True,FM,0.231184299999999,216
mp-1226019,Co5NiS8,-0.730139155714285,0.0,0.0,True,FiM,0.9871972,216
mp-761471,Co5O8,-1.169614579999998,0.023987028791211003,0.0,True,FM,4.993443,216
mp-1188878,Co8RhS8,-0.732440719411764,0.0,0.0,False,NM,0.007696199999999,225
mp-1181796,Co8RuS8,-0.7176172417647051,0.0,0.0,False,NM,0.1129917,225
mp-1513,Co9S8,-0.439116766029411,0.0,0.0,False,NM,2e-07,225
mp-22745,Co9Se8,-0.199138281323528,0.088942310588233,0.0,False,NM,7.75e-05,225
mp-12801,CoCu2Sn,0.200921928749999,0.248861766666666,0.0,True,FM,1.0655801,225
mp-1206874,CoH,-0.051942740625000004,0.0,0.0,True,FM,1.4225751,225
mp-1183707,CoMo3,0.21859374041666801,0.21859374041666801,0.0,True,FM,1.9670568,225
mp-1009078,CoN,0.374160344999999,0.374160344999999,0.0,False,NM,0.014129899999999002,225
mp-448,CoN,0.10286146062500001,0.10286146062500001,0.0,False,NM,1.83e-05,216
mp-1226065,CoNi5S8,-0.658122071428571,0.026512306785704,0.0,False,NM,0.0052235,216
mp-19079,CoO,-1.23491615,0.036914996250001005,0.0,True,FM,5.9999998,225
mp-22408,CoO,-1.2718311462500012,0.0,0.5880000000000001,True,AFM,7e-07,216
mp-1183900,CoPb3,0.574857738750004,0.574857738750004,0.0,True,FM,1.0334639,225
mp-1205702,CoRe(PbO3)2,-1.5959179782500001,0.131348107234375,0.0,True,FiM,2.065611,225
mp-631310,CoReGe2,0.5981970912499961,0.634434378124996,0.0,True,FM,0.484087699999999,216
mp-1062795,CoSI,0.18742780250000002,0.664607446250002,0.0,True,FM,2.0114207,216
mp-2379,CoSi2,-0.41107844000000104,0.0,0.0,False,NM,1.2e-06,225
mp-20221,CoTe(PbO3)2,-1.355204144666665,0.161316274629622,0.0,True,FM,3.000684,225
mp-8633,Cr,0.40252634000000104,0.40252634000000104,0.0,False,NM,3e-07,225
mp-542727,Cr2(Co7B2)3,-0.12456846672414401,0.014164327931034,0.0,True,FM,19.8386965,225
mp-1193668,Cr20(WC2)3,-0.054055778965517005,0.028670699802951,0.0,False,NM,0.1200262,225
mp-1213780,Cr21(FeC3)2,-0.048398689999999,0.02175216507663,0.0,True,FiM,2.5480264,225
mp-641573,Cr21(MoC3)2,-0.08599214517241201,0.0,0.0,False,NM,0.0004367,225
mp-641575,Cr21(WC3)2,-0.084368898620686,0.0,0.0,True,FiM,0.1394743,225
mp-1193982,Cr22MoC6,-0.043249456551722,0.035130769482757,0.0,False,NM,0.004586499999999,225
mp-1193310,Cr22WC6,-0.035641515862068006,0.041927086896546006,0.0,False,NM,0.003240599999999,225
mp-723,Cr23C6,-0.070768306896548,0.0,0.0,False,NM,5.6e-06,225
mp-1226392,Cr2Cu(SeS)2,-0.8288936328124991,0.008058461785715001,0.0,True,FiM,10.0388987,216
mp-1206821,Cr2O,0.007078628333333001,1.32184961111111,0.0,True,FM,9.7673402,225
mp-1193149,Cr3(W10C3)2,0.182643366551725,0.237448707832511,0.0,True,FiM,0.0795555,225
mp-1183682,Cr3As,0.143106338124999,0.23591221187500003,0.0,True,FM,1.0934044,225
mp-1008282,Cr3Fe,0.12679181250000002,0.12679181250000002,0.0,True,FiM,1.9931531999999992,225
mp-1008275,Cr3Ni,0.176166943749999,0.176166943749999,0.0,True,FiM,3.5558585,225
mp-1226280,Cr4CdAgSe8,-0.763073599315475,0.0,0.0,True,FM,11.0000965,216
mp-1226341,Cr4CdCoS8,-0.8886423885714261,0.058639413601187004,0.0,True,FM,14.9531487,216
mp-1226224,Cr4CdCuO8,-2.019009702857143,0.031661078928564006,0.0,True,FiM,11.0150694,216
mp-1226325,Cr4CdFeS8,-0.9046383157142851,0.049985649642857004,0.0,True,FM,16.0000853,216
mp-1226265,Cr4CoCuS8,-0.9159975492857131,0.000187383958329,0.0,True,FiM,8.082968,216
mp-1226342,Cr4CoNiS8,-0.8781771428571421,0.027099218775505002,0.0,True,FiM,11.1428429,216
mp-1226405,Cr4CuNiSe8,-0.743853269196428,0.0,0.0,True,FiM,9.9582074,216
mp-1226300,Cr4FeCoS8,-0.831686255,0.08902379353174401,0.0,True,FM,16.0589676,216
mp-1226331,Cr4FeCu(SeS)4,-0.788362952098214,0.051029134642856,0.0,True,FiM,14.7869538,216
mp-6685,Cr4FeCuS8,-0.8867687128571411,0.036758383571426,0.0,True,FiM,14.749205,216
mp-1226315,Cr4FeCuSe8,-0.709078585624999,0.029328398571435002,0.0,True,FiM,14.9144942,216
mp-1226289,Cr4FeNiS8,-0.641369867857141,0.29126774779592,0.0,False,NM,0.003110399999999,216
mp-1226247,Cr4GaCuS8,-0.986059919821427,0.0,0.0,True,FM,11.9901496,216
mp-1226304,Cr4GaCuSe8,-0.802006105446427,0.0,0.0,True,FiM,11.9914564,216
mp-1226264,Cr4GaS8,-0.9915397713461531,0.0,0.0,True,FM,11.0000004,216
mp-1226293,Cr4InAgS8,-0.93617870845238,0.0,0.0,True,FM,12.0000507,216
mp-1226322,Cr4InAgSe8,-0.7825749697916661,0.0,9.999999999976698e-05,True,FM,12.0000001,216
mp-20809,Cr4InCuSe8,-0.7855761346726151,0.0,0.0,True,FiM,11.9908726,216
mp-541940,Cr6Si7Ni16,-0.31236372014367403,0.07829247683908101,0.0,True,FM,17.6950945,225
mp-1206806,CrAg3F6,-1.861633889499999,0.09097230950000401,0.20420000000000002,True,FM,2.9999892999999993,225
mp-579,CrC,0.17260858750000002,0.254763764583332,0.0,True,FM,1.3960778,225
mp-1008277,CrCo2As,0.021477920624999,0.16260986499999902,0.0,True,FM,4.994962,225
mp-1018080,CrCo2Bi,0.38314022000000103,0.38314022000000103,0.0,True,FM,5.001237,225
mp-1183740,CrCo2Ge,-0.114220481249999,0.0,0.0,True,FM,3.9989286,225
mp-1018082,CrCo2Sb,0.07108677958333201,0.12038147124999901,0.0,True,FM,4.9944516,225
mp-1008224,CrCo2Si,-0.229811197499998,0.018480944374999,0.0,True,FM,4.0004652,225
mp-1009593,CrCoTe,-0.050198278888888004,0.208413515833332,0.0,True,FiM,3.0174209,216
mp-1007924,CrCu2Si,0.208971618766668,0.316730743250001,0.0,True,FM,3.3497926,225
mp-1100441,CrCuB,0.26635272666666704,0.5401955608333341,0.0,True,FM,1.9994674,216
mp-1008225,CrFe2Sb,0.14062806500000002,0.19912948999999902,0.0,True,FM,3.0171368,225
mp-1018068,CrFe2Si,-0.23806202,0.07228490041666501,0.0,True,FM,1.9996215,225
mp-1008226,CrFe2Sn,0.25434606875000004,0.255708534999998,0.0,True,FM,4.0285434,225
mp-1018067,CrFe3,0.063674125,0.063674125,0.0,True,FiM,5.6965272,225
mp-1213726,CrFeCoSi,-0.268341612499998,0.07389571625000001,0.0,True,FM,2.9952255,216
mp-1009592,CrFeTe,-0.010901138888887002,0.24771065583333302,0.0,True,FiM,2.0012812,216
mp-567981,CrGaCo2,-0.076226381249998,0.021576596250000003,0.0,True,FM,3.0081604,225
mp-30570,CrGaFe2,-0.027434201874998003,0.08692020476562501,0.0,True,FiM,0.9951089,225
mp-1183690,CrGaRh2,-0.38577897937499905,0.0,0.0,True,FM,3.1131696,225
mp-1183688,CrGaRu2,-0.205630712500003,0.0,0.0,True,FiM,1.3161369,225
mp-631421,CrGaTe,0.356367661944444,0.7426674763888901,0.0,True,FM,4.6751824,216
mp-961725,CrGeRh,-0.014577054999998002,0.35992394999999805,0.0,True,FM,3.5376503,216
mp-1206594,CrGeRu2,-0.287216905000001,0.0,0.0,True,FiM,2.0245505,225
mp-24287,CrH,0.18541373562499902,0.18541373562499902,0.0,False,NM,0.0111304,225
mp-1213766,CrH12(CF)8,0.451193565344827,1.540755515646552,0.208599999999999,True,FM,5.9989123,225
mp-24208,CrH2,0.0022804741666660002,0.0022804741666660002,0.0,True,FM,3.2048492,225
mp-16735,CrInCo2,0.19761378770833402,0.20305812041666702,0.0,True,FM,3.115169,225
mp-1007961,CrInCu2,0.175193845178572,0.20180034714285802,0.0,True,FM,3.3509644,225
mp-1007991,CrInNi2,0.046278841250002006,0.152881741249999,0.0,True,FM,3.4573721,225
mp-631404,CrIrRu,0.62380179555556,0.7386745100000021,0.0,True,FiM,1.7321705,216
mp-1018157,CrN,-0.678866234374999,0.070320584999999,0.0,True,FM,2.1734396,216
mp-2132,CrN,-0.700968725624999,0.048218093749999004,0.0,True,FM,2.9433927,225
mp-1014264,CrN2,0.42410704875000005,0.923564928333332,0.0,True,FM,1.0829109,225
mp-631502,CrNi2Hg,0.40069030875000006,0.40069030875000006,0.0,True,FM,3.9975329,216
mp-1007975,CrNi3,0.12480412749999902,0.12480412749999902,0.0,True,FiM,2.0533464,225
mp-1018161,CrNiSb,-0.015090736666666,0.15439266333333201,0.0,True,FM,3.0077274,216
mp-19091,CrO,-1.6046429025,0.36751357166666604,0.0,True,FM,3.9999761,225
mp-1009555,CrO2,-1.854942556666666,0.19275830499996702,0.0,True,FiM,1.9987035,225
mp-1407787,CrSe2,-0.7439466140624991,0.024610624166666,0.0,True,FiM,8.649582,216
mp-865791,CrSiRu2,-0.49520412375000306,0.0,0.0,True,FiM,2.0073762,225
mp-1183708,CrSnRh2,-0.272315713749999,0.017585407499998002,0.0,True,FM,4.1249301,225
mp-1206591,CrSnRu2,-0.05645200455357,0.006014486071428,0.0,True,FiM,2.0190708,225
mp-1008926,CrTe,-0.087500668333333,0.300417023749997,0.0,True,FM,4.0,216
mp-1009079,CrTe,-0.21043767333333202,0.17748001874999803,0.0,True,FM,4.0,225
mp-1055940,Cs,0.009248450000001001,0.009248450000001001,0.0,False,NM,1e-07,225
mp-23951,Cs(BH)3,-0.34196713360222003,0.052877306219208005,4.324199999999999,False,NM,0.0,225
mp-1113578,Cs2AgAsBr6,-1.322267520847702,0.0,1.116099999999999,False,NM,0.0,225
mp-1113543,Cs2AgAsCl6,-1.5611243658477,0.008311962999999001,1.5886,False,NM,0.0006703,225
mp-1114305,Cs2AgAsF6,-2.433482206847701,0.05565596933333301,2.4428,False,NM,0.000277,225
mp-1113575,Cs2AgAuBr6,-1.203201411097701,0.024743095500001002,0.0,False,NM,0.000487299999999,225
mp-568448,Cs2AgAuCl6,-1.393409239097701,0.054055213000011,0.0,False,NM,1.25e-05,225
mp-1113576,Cs2AgAuF6,-1.948868648333331,0.046220554499981005,0.0,False,NM,0.0026923,225
mp-1078250,Cs2AgBiBr6,-1.456030710097701,0.0055248698125010005,1.3547,False,NM,0.0003862,225
mp-1120775,Cs2AgBiBr6,-0.30408306009770103,1.157472519812501,0.0,False,NM,1.0145535,225
mp-1078258,Cs2AgBiCl6,-1.510083130500001,0.0,1.8663,False,NM,0.0,225
mp-1114309,Cs2AgBiF6,-2.471992757000001,0.0,2.7645,False,NM,0.0,225
mp-1113264,Cs2AgBiI6,-1.086875971097701,0.029702688312500003,0.8526,False,NM,0.0008124,225
mp-1206546,Cs2AgF6,-1.986505021666665,0.0,0.0,True,FM,1.0,225
mp-1113622,Cs2AgIrF6,-2.091066187666678,0.06587425933334101,1.3698000000000001,False,NM,0.0009331999999990001,225
mp-1113243,Cs2AgMoBr6,-1.330556895097701,0.054362561624994005,0.5337000000000001,True,FM,2.9981516,225
mp-1113232,Cs2AgMoCl6,-1.454606304166665,0.043438118333334004,0.9531000000000001,True,FM,2.998700099999999,225
mp-1113226,Cs2AgMoF6,-2.602620705097701,0.0,2.7943000000000002,True,FM,2.9998053000000002,225
mp-1112943,Cs2AgSbBr6,-1.4068146840977,0.011956138312506,1.1916,False,NM,0.0004946,225
mp-1112940,Cs2AgSbCl6,-1.651126571097701,0.0,1.662399999999999,False,NM,0.0007433,225
mp-1113227,Cs2AgSbF6,-2.529717503097701,0.08903358433333201,2.3185000000000002,False,NM,0.000411399999999,225
mp-1112941,Cs2AgSbI6,-1.044632548097701,0.028235761312500003,0.43869999999999904,False,NM,0.0008296,225
mp-1113577,Cs2AlAgBr6,-1.552463265097701,0.08109695862499801,1.4697,False,NM,0.0005721999999990001,225
mp-1113621,Cs2AlAgCl6,-1.7016005875000042,0.061541165749999,2.4585,False,NM,0.0003962,225
mp-1113614,Cs2AlAgF6,-3.0340755550977,0.0,3.4974,False,NM,6.690000000000001e-05,225
mp-1113424,Cs2AlAuBr6,-1.439757383931034,0.158050155749999,0.0,False,NM,0.0006495,225
mp-1113220,Cs2AlAuCl6,-1.553849828750002,0.16604793474999002,0.8686,False,NM,0.000606,225
mp-1113113,Cs2AlAuF6,-2.830555843222217,0.13991899105556602,1.5293,False,NM,4.77e-05,225
mp-1112932,Cs2AlAuI6,-1.0337027559310341,0.103604116249997,0.0,False,NM,0.000342099999999,225
mp-1113187,Cs2AlCuCl6,-1.628220088374995,0.129547863625001,0.8611999999999991,False,NM,0.0001972,225
mp-989648,Cs2AlGaH6,-0.160572485431034,0.08918820508333501,0.8501000000000001,False,NM,0.0001071,225
mp-1112629,Cs2AlHgBr6,-1.522564671181035,0.113794516374998,0.0,False,NM,0.001495499999999,225
mp-1112616,Cs2AlHgCl6,-1.822616389181035,0.12655245774999901,0.0,False,NM,0.0105372,225
mp-1113101,Cs2AlHgF6,-2.966533389181035,0.10011393012500001,0.0,True,FM,0.8716373,225
mp-1113281,Cs2AlInBr6,-1.632791347597701,0.052444003999998004,2.2348,False,NM,0.000451499999999,225
mp-1113280,Cs2AlInCl6,-1.7911140397500032,0.046391825500000004,3.1183,False,NM,0.00020669999999900002,225
mp-1112586,Cs2AlInF6,-3.154129284048613,0.011552774562499,4.5643,False,NM,0.0003743,225
mp-989535,Cs2AlInH6,-0.17249546234770102,0.0,0.610799999999999,False,NM,0.001359,225
mp-1112896,Cs2AlInI6,-1.182273860597701,0.043304445249999005,0.9565999999999991,False,NM,0.0007628,225
mp-1112506,Cs2AlTlBr6,-1.670507063264369,0.057970393499999,2.942599999999999,False,NM,0.0004787,225
mp-1112505,Cs2AlTlCl6,-2.001432016264369,0.043439865249999,3.9209,False,NM,0.0001641,225
mp-1111952,Cs2AlTlF6,-3.200818633264369,0.0,5.6085,False,NM,0.000277499999999,225
mp-989575,Cs2AlTlH6,-0.20625497101436802,0.0,1.136199999999999,False,NM,0.001093499999999,225
mp-1112111,Cs2AlTlI6,-1.2148941062643681,0.059483206499999004,1.591099999999999,False,NM,0.0008849999999990001,225
mp-1112632,Cs2AsAuBr6,-1.235131907681034,0.029213271249998004,0.0,False,NM,0.000714,225
mp-1112619,Cs2AsAuCl6,-1.449626452681035,0.09526503899999701,0.3048,False,NM,0.0005055999999990001,225
mp-1113149,Cs2AsAuF6,-2.266177911681034,0.2229602645,0.856499999999999,False,NM,0.0008711,225
mp-1112929,Cs2AsAuI6,-0.914217492681035,0.032460958999997,0.0,False,NM,3e-07,225
mp-989511,Cs2AsBrCl6,-1.432586326181034,0.056926800500002005,0.0675,False,NM,0.0011454,225
mp-1112930,Cs2BiAuBr6,-1.3583528409310341,0.06913151974999901,0.43110000000000004,False,NM,0.0002586,225
mp-1113443,Cs2BiAuCl6,-1.367402592749996,0.08108372750001101,0.9914000000000001,False,NM,0.0005748999999990001,225
mp-1113148,Cs2BiAuF6,-2.3907575349310353,0.113889242333331,1.236899999999999,False,NM,0.00067,225
mp-1113421,Cs2BiAuI6,-1.018955944931034,0.06579947749999901,0.0,False,NM,0.000152199999999,225
mp-989543,Cs2BrCl6F,-1.201150333931035,0.0,0.9489000000000001,False,NM,0.0007285,225
mp-989570,Cs2CaSnCl6,-2.208531221431035,0.015931999999999003,3.6131,False,NM,9.180000000000002e-05,225
mp-1188970,Cs2CdFe(CN)6,-0.24605865558189602,0.0,4.114,False,NM,0.0001327,225
mp-1113262,Cs2CeAgBr6,-1.8869487550977,0.0,2.6247,True,FM,0.997430199999999,225
mp-1113570,Cs2CeAgCl6,-2.1820707900977,0.02588211383333,2.9041,True,FM,0.9989709,225
mp-1113538,Cs2CeAgF6,-3.147149339097701,0.10068326970833301,0.0,True,FM,0.9988319,225
mp-1113271,Cs2CeAgI6,-1.4531444210977011,0.026663883750001,0.2136,True,FM,0.999344599999999,225
mp-1113363,Cs2CeCuCl6,-1.974937743500004,0.07423709699997201,1.674099999999999,True,FM,1.0109868,225
mp-1113362,Cs2CeCuI6,-1.391734718931034,0.06829331875000101,0.20599999999999902,True,FM,1.0000509,225
mp-1113539,Cs2CoAgF6,-2.318850262097701,0.043119591874998,1.8768,False,NM,3.08e-05,225
mp-610706,Cs2CoF6,-2.472950881034483,0.0,0.0,True,FM,1.0000001,225
mp-1112601,Cs2CoHgF6,-2.120758046181035,0.30131844237500105,0.0,True,FM,0.999596399999999,225
mp-557324,Cs2CrF6,-2.969485863256706,0.0,0.0,True,FM,2.0000673,225
mp-1112592,Cs2CrHgF6,-2.591535147181035,0.11918016404166201,0.0,True,FM,3.5593662,225
mp-1112612,Cs2CuAsCl6,-1.5168232666810342,0.051697736999998,0.8647,False,NM,3.91e-05,225
mp-1113490,Cs2CuAuCl6,-1.3910486319310351,0.05811450316666401,0.0,False,NM,0.000112,225
mp-1112959,Cs2CuAuF6,-2.096964393931034,0.08249180299999101,0.0,False,NM,0.0073827,225
mp-1112278,Cs2CuBiBr6,-1.410383978931034,0.031298742249999005,0.8439000000000001,False,NM,0.0005846,225
mp-1111471,Cs2CuBiCl6,-1.458815747999986,0.024176087499995003,1.118399999999999,False,NM,9.27e-05,225
mp-1110978,Cs2CuBiF6,-2.4522597508750072,0.061976604499999005,1.162299999999999,False,NM,0.0003749,225
mp-1113070,Cs2CuBiI6,-1.032067757931035,0.061949898527779004,0.353099999999999,False,NM,0.0008692999999990001,225
mp-28692,Cs2CuF6,-2.1812346388888892,0.008635121111099,0.0,True,FM,1.0000001,225
mp-1112273,Cs2CuMoBr6,-1.268860470931034,0.09931549527083,0.39889999999999903,True,FM,2.9997256,225
mp-1113182,Cs2CuMoCl6,-1.3953499875000022,0.10269443500000001,0.853599999999999,True,FM,3.0045376,225
mp-1112885,Cs2CuMoI6,-0.8641907219310351,0.151300378958332,0.087199999999999,True,FM,2.9998373,225
mp-1111879,Cs2CuSbBr6,-1.361279526931034,0.037618436750002,0.4006,False,NM,0.0007287999999990001,225
mp-1111461,Cs2CuSbCl6,-1.610273098931034,0.036211915999999005,0.897999999999999,False,NM,9.86e-05,225
mp-1112882,Cs2CuSbI6,-0.9906243239310341,0.059682982527778004,0.6997999999999991,False,NM,0.0019792,225
mp-1112927,Cs2DyAuCl6,-2.074860158097701,0.099784568999999,2.1667,False,NM,0.000340099999999,225
mp-1112958,Cs2DyCuCl6,-2.02527425424999,0.039144086999998,2.2443,False,NM,0.0044091,225
mp-1112928,Cs2ErAuCl6,-1.932270901083342,0.09800066174999901,2.0871,False,NM,0.000344399999999,225
mp-1112917,Cs2ErCuCl6,-2.024936442333333,0.039840635750001005,2.0815,False,NM,0.0001193,225
mp-1113420,Cs2EuAuCl6,-1.9576893084310352,0.049199050499997,0.0,True,FiM,6.0000359,225
mp-571284,Cs2FeNi(CN)6,-0.20812676558189702,0.028715413090275,1.3748,True,FM,2.0174646,225
mp-1113553,Cs2GaAgBr6,-1.425489123847701,0.08732661837499901,0.0551,False,NM,0.0010823,225
mp-1113623,Cs2GaAgCl6,-1.7040479408477012,0.068197048750002,1.2972000000000001,False,NM,0.0002726,225
mp-1113583,Cs2GaAgF6,-2.688667714847702,0.0,2.7308,False,NM,0.0002049,225
mp-1113594,Cs2GaAgI6,-1.031025850847701,0.075172162000001,0.0,False,NM,0.0010953,225
mp-1113416,Cs2GaAuBr6,-1.332175688681034,0.144887369499999,0.0,False,NM,0.000277199999999,225
mp-1113218,Cs2GaAuCl6,-1.579664933681034,0.161937416749999,0.0,False,NM,0.0009410999999990001,225
mp-1112947,Cs2GaAuF6,-2.508960635681034,0.138331006222221,0.9632000000000001,False,NM,0.0005593999999990001,225
mp-1112925,Cs2GaAuI6,-0.9836247296810341,0.08524795524999901,0.0,False,NM,0.0007299,225
mp-1113185,Cs2GaCuCl6,-1.648100147681034,0.121210032625002,0.0,False,NM,0.0023037,225
mp-1113302,Cs2GaHgBr6,-1.417699020931035,0.09791568512499901,0.0,False,NM,2.32e-05,225
mp-1113202,Cs2GaHgCl6,-1.668577993931035,0.115194304750001,0.0,False,NM,0.0011262,225
mp-1113098,Cs2GaHgF6,-2.626930773931035,0.090347087666669,0.0,False,NM,0.058907999999999,225
mp-1112903,Cs2GaHgI6,-1.050969016931035,0.05008502283333301,0.0,False,NM,0.0010934,225
mp-1113592,Cs2GdAgCl6,-2.209648464097701,0.0,0.0,True,FM,7.0000533,225
mp-1112633,Cs2GdAuCl6,-1.911720818708337,0.098147205666663,1.511099999999999,True,FM,7.0034436,225
mp-27882,Cs2GeCl6,-1.8067872082567011,0.0,2.215,False,NM,0.0,225
mp-8217,Cs2GeF6,-3.052358112701146,0.0,6.0336,False,NM,0.0,225
mp-643243,Cs2H6Pt,-0.469140110277777,0.0,3.908299999999999,False,NM,0.0,225
mp-1238793,Cs2HfBr6,-2.046308469923367,0.0,3.2973,False,NM,0.0,225