material_id,formula,formation_energy,ehull,band_gap,is_magnetic_x,magnetic_ordering,total_magnetization_x,spacegroup,heusler_type,is_magnetic_y,total_magnetization_y
mp-1186343,NdGdHg2,-0.554571338125001,0.0,0.0,True,FM,8.4460325,225,full,True,8.4460325
mp-1186378,NdGdIr2,-0.710643049374994,0.0,0.0,True,FiM,6.708854,225,full,True,6.708854
mp-1186308,NdHgAu2,-0.584546804999998,0.002329778993056,0.0,False,NM,1.7000000000000003e-05,225,full,False,1.7000000000000003e-05
mp-975933,NdHoIn2,-0.457062433958329,0.0,0.0,False,NM,4.58e-05,225,full,False,4.58e-05
mp-1186307,NdHoMg2,-0.073374888124998,0.001216963750001,0.0,False,NM,5.59e-05,225,full,False,5.59e-05
mp-1186309,NdHoTl2,-0.346191132291666,0.0,0.0,False,NM,5.31e-05,225,full,False,5.31e-05
mp-1186313,NdHoZn2,-0.321249873125,0.007584257499996,0.0,False,NM,0.0009213,225,full,False,0.0009213
mp-569768,NdInAg2,-0.416403981874996,0.0,0.0,False,NM,1.85e-05,225,full,False,1.85e-05
mp-568139,NdInAu2,-0.6829360585416671,0.0,0.0,False,NM,2.499999999999999e-06,225,full,False,2.499999999999999e-06
mp-21360,NdInCu2,-0.328498426874999,0.035006743499991,0.0,False,NM,8.099999999999999e-06,225,full,False,8.099999999999999e-06
mp-977590,NdInPd2,-0.7247907910416641,0.010369753055556,0.0,False,NM,1.38e-05,225,full,False,1.38e-05
mp-975537,NdInRh2,-0.5983264660416671,0.011017387291664,0.0,False,NM,7.099999999999996e-06,225,full,False,7.099999999999996e-06
mp-975518,NdLuIn2,-0.556492708541664,0.027750155694423,0.0,False,NM,1.51e-05,225,full,False,1.51e-05
mp-975515,NdLuMg2,-0.065189018541667,0.009402833333331,0.0,False,NM,1.58e-05,225,full,False,1.58e-05
mp-975522,NdLuTl2,-0.314491370208339,0.012746842750001,0.0,False,NM,5.1600000000000014e-05,225,full,False,5.1600000000000014e-05
mp-644504,NdMg2Ag,-0.101489907291665,0.094807083333333,0.0,False,NM,6.410000000000001e-05,225,full,False,6.410000000000001e-05
mp-866074,NdMgAg2,-0.28227156645833,0.0,0.0,False,NM,2e-07,225,full,False,2e-07
mp-866064,NdMgAu2,-0.7259730481249981,0.0,0.0,False,NM,1.8e-06,225,full,False,1.8e-06
mp-866065,NdMgCd2,-0.307852513124997,0.0,0.0,False,NM,1.19e-05,225,full,False,1.19e-05
mp-864924,NdMgHg2,-0.460280274375001,0.0,0.0,False,NM,0.0,225,full,False,0.0
mp-975184,NdMgTl2,-0.23885198729167,0.045765598541667,0.0,False,NM,0.0024142,225,full,False,0.0024142
mp-864925,NdMgZn2,-0.338612443124999,0.0,0.0,False,NM,7e-07,225,full,False,7e-07
mp-1206719,NdNiBi,-0.6555433724999971,0.0,0.511899999999999,False,NM,0.0,216,half,False,0.0
mp-35208,NdOF,-4.102901809166666,0.054305918333332,5.2617,False,NM,0.0014255,216,half,False,0.0014255
mp-865597,NdPbAu2,-0.613197059374996,0.0,0.0,False,NM,3.5e-06,225,full,False,3.5e-06
mp-1186317,NdPd2Pb,-0.6424685668749971,0.010927995833334,0.0,False,NM,2.4e-06,225,full,False,2.4e-06
mp-975049,NdSmHg2,-0.556696038124997,0.0,0.0,True,FM,0.7561897,225,full,True,0.7561897
mp-1186351,NdSmIn2,-0.622576301874996,0.003981402499999,0.0,False,NM,1.3900000000000002e-05,225,full,False,1.3900000000000002e-05
mp-974583,NdSmIr2,-0.700093819089282,0.080827176607144,0.0,False,NM,5.2e-06,225,full,False,5.2e-06
mp-1186328,NdSmMg2,-0.082475873124999,0.006677425,0.0,False,NM,3.8200000000000014e-05,225,full,False,3.8200000000000014e-05
mp-1186330,NdSmTl2,-0.382829719791671,0.000589519999999,0.0,False,NM,6.09e-05,225,full,False,6.09e-05
mp-974527,NdSmZn2,-0.321189970624999,0.001036684999998,0.0,False,NM,0.000129,225,full,False,0.000129
mp-864668,NdSnAu2,-0.693674060624997,0.0,0.0,False,NM,6.099999999999997e-06,225,full,False,6.099999999999997e-06
mp-974782,NdTlAg2,-0.248954253541667,0.026972744399511,0.0,False,NM,0.0006871,225,full,False,0.0006871
mp-864667,NdTlAu2,-0.563963890208336,0.018393936249997,0.0,False,NM,2.8e-06,225,full,False,2.8e-06
mp-1186338,NdTmIn2,-0.5773304543749981,0.037638892475946,0.0,False,NM,1.17e-05,225,full,False,1.17e-05
mp-976008,NdTmMg2,-0.069217486875001,0.005374364999997,0.0,False,NM,1.3400000000000002e-05,225,full,False,1.3400000000000002e-05
mp-974708,NdTmTl2,-0.330607878541674,0.005064154,0.0,False,NM,3.9900000000000014e-05,225,full,False,3.9900000000000014e-05
mp-1186325,NdTmZn2,-0.322495399375001,0.012021977499998,0.0,False,NM,0.000768199999999,225,full,False,0.000768199999999
mp-1186379,NdYIn2,-0.613462731874999,0.002594975,0.0,False,NM,3.89e-05,225,full,False,3.89e-05
mp-973109,NdYIr2,-0.6553158668749991,0.075205641428571,0.0,False,NM,1.7500000000000002e-05,225,full,False,1.7500000000000002e-05
mp-1186335,NdYMg2,-0.085848994374999,0.0,0.0,False,NM,3.4200000000000005e-05,225,full,False,3.4200000000000005e-05
mp-1186336,NdYZn2,-0.325143881874999,0.004957719999999,0.0,False,NM,0.012884099999999,225,full,False,0.012884099999999
mp-974744,NdZn2Ag,-0.290598542291665,0.024614050710785,0.0,False,NM,0.0008052,225,full,False,0.0008052
mp-974770,NdZn2Cd,-0.321501334374999,0.002000062916663,0.0,False,NM,8e-06,225,full,False,8e-06
mp-977576,NdZnAu2,-0.586275844374999,0.028377252678216,0.0,False,NM,0.000435299999999,225,full,False,0.000435299999999
mp-631540,NiBTe,0.7392054047569441,0.9327244878819452,0.0,False,NM,0.000207899999999,216,half,False,0.000207899999999
mp-631538,NiBiB,0.8649875759027781,1.026687505486108,0.0,False,NM,3.6200000000000006e-05,216,half,False,3.6200000000000006e-05
mp-631488,NiRuBr2,0.53241105,1.096171385,0.0,False,NM,6.900000000000002e-05,225,full,False,6.900000000000002e-05
mp-11519,NiSnRh2,-0.251605811249998,0.020375088749999,0.0,True,FM,1.0094226,225,full,True,1.0094226
mp-977422,NpCdAu2,-0.5178324696874981,0.0,0.0,True,FM,4.3634919,225,full,True,4.3634919
mp-864787,NpCdPt2,-0.228259987187499,0.19145403125,0.0,False,NM,0.0027937,225,full,False,0.0027937
mp-864608,NpGaRh2,-0.291508361562499,0.161755375208334,0.0,False,NM,0.011936599999999,225,full,False,0.011936599999999
mp-977402,NpInRh2,-0.447669134687487,0.142398981500001,0.0,False,NM,0.0013853,225,full,False,0.0013853
mp-1186321,NpSbPd2,-0.1513913546875,0.284794810312498,0.0,True,FM,0.0966677,225,full,True,0.0966677
mp-1186344,NpScRu2,-0.1171690309375,0.175375820312497,0.0,False,NM,0.004042299999999,225,full,False,0.004042299999999
mp-1186342,NpScTc2,-0.094568220937501,0.1342074546875,0.0,True,FiM,2.6024773,225,full,True,2.6024773
mp-977411,NpSnAu2,-0.5747862971874931,0.0,0.0,True,FM,3.9249644,225,full,True,3.9249644
mp-864834,NpSnRh2,-0.217914920937499,0.126818939583333,0.0,False,NM,0.0020837,225,full,False,0.0020837
mp-631399,OsPtCl2,1.08321863916667,1.439516646666668,0.0,False,NM,4e-07,216,full,False,4e-07
mp-631533,PPbW,1.884796629841261,2.127636005833331,0.0,True,FM,2.35071,216,half,True,2.35071
mp-1186372,Pa2BiTe,-0.532560661249995,0.0,0.0,True,FM,4.6662908,225,full,True,4.6662908
mp-973843,Pa2SbTe,-0.627868816666667,0.0,0.0,True,FM,4.53161,225,full,True,4.53161
mp-977444,PaAgAu2,-0.316874893749997,0.13700548125,0.0,True,FM,0.916331,225,full,True,0.916331
mp-864791,PaAgTe2,-0.444656681250002,0.0,0.0,True,FM,1.4084907,225,full,True,1.4084907
mp-864780,PaAlAu2,-0.458836192499994,0.110685996874963,0.0,False,NM,8.680000000000002e-05,225,full,False,8.680000000000002e-05
mp-973910,PaAlCu2,-0.153893172499998,0.093458180714289,0.0,False,NM,9.3e-06,225,full,False,9.3e-06
mp-1186389,PaAlFe2,-0.212991907499998,0.0,0.0,True,FiM,3.927423,225,full,True,3.927423
mp-865149,PaAlRu2,-0.604847784999996,0.0,0.0,False,NM,0.0033453,225,full,False,0.0033453
mp-865148,PaAlTc2,-0.387217107499999,0.0,0.0,False,NM,0.0001226,225,full,False,0.0001226
mp-1186390,PaAlV2,-0.142235083749991,0.016425026250001,0.0,False,NM,0.0003945,225,full,False,0.0003945
mp-1186394,PaBiAu2,-0.292941926250001,0.160938448749995,0.0,False,NM,0.022173,225,full,False,0.022173
mp-861973,PaCdAu2,-0.4106513475,0.043229027499997,0.0,True,FM,0.740955599999999,225,full,True,0.740955599999999
mp-861974,PaCdPt2,-0.719785839999997,0.0,0.0,False,NM,0.000933399999999,225,full,False,0.000933399999999
mp-864717,PaCu2Sn,-0.118533157499999,0.0,0.0,False,NM,0.000139799999999,225,full,False,0.000139799999999
mp-864716,PaGaAu2,-0.424217157499995,0.070497348571429,0.0,False,NM,7e-07,225,full,False,7e-07
mp-861971,PaGaCu2,-0.137844595,0.053053221249999,0.0,False,NM,5.3300000000000015e-05,225,full,False,5.3300000000000015e-05
mp-861976,PaGaFe2,-0.168725789375001,0.0,0.0,True,FiM,4.00458,225,full,True,4.00458
mp-861977,PaGaNi2,-0.367055144999998,0.012214362499996,0.0,False,NM,4.5700000000000006e-05,225,full,False,4.5700000000000006e-05
mp-1186396,PaGaPt2,-0.791950396875,0.012275087499996,0.0,False,NM,0.0021367,225,full,False,0.0021367
mp-861980,PaGaTc2,-0.279342979999995,0.0,0.0,False,NM,0.0003295,225,full,False,0.0003295
mp-862817,PaHgAu2,-0.353551554375002,0.100328820624994,0.0,True,FM,0.818811299999999,225,full,True,0.818811299999999
mp-1186414,PaHgTe2,-0.5179221568750021,0.0,0.0,True,FM,1.0000837,225,full,True,1.0000837
mp-862819,PaInAu2,-0.483357667499994,0.009844797857141,0.0,False,NM,0.001209499999999,225,full,False,0.001209499999999
mp-862823,PaInCu2,-0.102407864999996,0.0,0.0,False,NM,0.0003143,225,full,False,0.0003143
mp-1186470,PaInNi2,-0.290589442499996,0.054453026785715,0.0,False,NM,0.000876199999999,225,full,False,0.000876199999999
mp-1186455,PaInPd2,-0.5751662874999961,0.029500237499995,0.0,True,FM,0.793309199999999,225,full,True,0.793309199999999
mp-862824,PaInPt2,-0.87195052749999,0.056646594583341,0.0,False,NM,0.0019209,225,full,False,0.0019209
mp-1186458,PaInRu2,-0.436025439999994,0.0,0.0,False,NM,2.56e-05,225,full,False,2.56e-05
mp-1186492,PaInTc2,-0.127207602499993,0.0,0.0,False,NM,0.024339899999999,225,full,False,0.024339899999999
mp-861991,PaMn2Al,-0.154147683965517,0.0,0.0,True,FiM,5.1591406,225,full,True,5.1591406
mp-1186426,PaMn2Ga,-0.122504537241376,0.129360279374996,0.0,True,FiM,5.3489053,225,full,True,5.3489053
mp-1006056,PaNi2Ge,-0.367469232499999,0.128969903382355,0.0,False,NM,0.0006159,225,full,False,0.0006159
mp-861992,PaNi2Sb,-0.399985637499995,0.03741437850001,0.0,False,NM,4.9000000000000005e-06,225,full,False,4.9000000000000005e-06
mp-861995,PaNi2Sn,-0.391738926249998,0.0,0.0,False,NM,3.9e-05,225,full,False,3.9e-05
mp-862813,PaPbAu2,-0.331312277499996,0.1225680975,0.0,True,FM,0.9437745,225,full,True,0.9437745
mp-862814,PaSiTc2,-0.331962868749997,0.186367569583339,0.0,False,NM,0.0001251,225,full,False,0.0001251
mp-862821,PaSnAu2,-0.428753502500001,0.025126872499996,0.0,True,FM,0.574458399999999,225,full,True,0.574458399999999
mp-862822,PaSnPd2,-0.625523767499998,0.0,0.0,True,FM,0.779850199999999,225,full,True,0.779850199999999
mp-1186407,PaSnRu2,-0.381550539999999,0.0,0.0,True,FM,1.0232649,225,full,True,1.0232649
mp-1186412,PaTc2Ge,-0.25140460875,0.0,0.0,False,NM,0.002977199999999,225,full,False,0.002977199999999
mp-1186406,PaTc2Sn,-0.242436007499996,0.0,0.0,False,NM,0.000194399999999,225,full,False,0.000194399999999
mp-862829,PaTe2Au,-0.486941534999999,0.098860002477685,0.0,False,NM,6e-07,225,full,False,6e-07
mp-1186417,PaTe2Pd,-0.5864961824871241,0.236660257499998,0.0,True,FM,0.777983099999999,225,full,True,0.777983099999999
mp-862831,PaTiTc2,-0.361548776666666,0.0,0.0,False,NM,0.003551699999999,225,full,False,0.003551699999999
mp-862830,PaTlAu2,-0.312420432499997,0.141459942499999,0.0,False,NM,0.0058839,225,full,False,0.0058839
mp-862833,PaZnAu2,-0.367683706250005,0.104140740043099,0.0,False,NM,0.0187103,225,full,False,0.0187103
mp-1186422,PaZnNi2,-0.260000284999998,0.032372067083333,0.0,False,NM,0.0056045,225,full,False,0.0056045
mp-862835,PaZnPt2,-0.7720785374999971,0.0,0.0,False,NM,0.000159,225,full,False,0.000159
mp-1186419,PaZnRh2,-0.650043638749998,0.136611341071429,0.0,False,NM,0.0101944,225,full,False,0.0101944
mp-862843,PaZnRu2,-0.383159449999999,0.0,0.0,False,NM,0.000279,225,full,False,0.000279
mp-1186430,PaZnTc2,-0.090533839999999,0.0,0.0,False,NM,0.2285556,225,full,False,0.2285556
mp-1186438,Pm2AgAu,-0.5861513324999941,0.0,0.0,False,NM,1.5000000000000002e-05,225,full,False,1.5000000000000002e-05
mp-862979,Pm2AgGe,-0.581500837499998,0.0,0.0,False,NM,0.003101,225,full,False,0.003101
mp-1186433,Pm2AgHg,-0.430485724375003,0.0,0.0,False,NM,0.0004474,225,full,False,0.0004474
mp-862977,Pm2AgIr,-0.558517127500003,0.0,0.0,False,NM,1.03e-05,225,full,False,1.03e-05
mp-1186439,Pm2AgOs,-0.191615904999999,0.0,0.0,False,NM,3.78e-05,225,full,False,3.78e-05
mp-862989,Pm2AgPt,-0.7502617999999971,0.0,0.0,False,NM,3.05e-05,225,full,False,3.05e-05
mp-982929,Pm2AgRh,-0.515014192499997,0.0,0.0,False,NM,8e-06,225,full,False,8e-06
mp-862991,Pm2AgRu,-0.259739213749998,0.0,0.0,False,NM,1e-07,225,full,False,1e-07
mp-862990,Pm2AgSn,-0.597936879999998,0.0,0.0,True,FM,1.0327039,225,full,True,1.0327039
mp-1186432,Pm2AlCd,-0.399994378749998,0.0,0.0,False,NM,2.17e-05,225,full,False,2.17e-05
mp-1186435,Pm2AlGa,-0.514243256250001,0.0,0.0,False,NM,1e-07,225,full,False,1e-07
mp-1186585,Pm2AlIn,-0.5071065262499981,0.0,0.0,False,NM,7.499999999999998e-06,225,full,False,7.499999999999998e-06
mp-1186441,Pm2AlZn,-0.383999627499999,0.0,0.0,False,NM,4.5e-05,225,full,False,4.5e-05
mp-1186434,Pm2CdGa,-0.5126855462500011,0.0,0.0,False,NM,5.9500000000000016e-05,225,full,False,5.9500000000000016e-05
mp-862994,Pm2CdGe,-0.5589509987499991,0.0,0.0,False,NM,3.8200000000000014e-05,225,full,False,3.8200000000000014e-05
mp-1186436,Pm2CdHg,-0.461945700625001,0.0,0.0,True,FM,1.0158718,225,full,True,1.0158718
mp-862996,Pm2CdIn,-0.5265062512500011,0.0,0.0,False,NM,0.0003698,225,full,False,0.0003698
mp-1186480,Pm2CdPb,-0.535074441250003,0.0,0.0,False,NM,8.76e-05,225,full,False,8.76e-05
mp-863654,Pm2CdSi,-0.448319074999997,0.0,0.0,False,NM,2.2e-06,225,full,False,2.2e-06
mp-863655,Pm2CdSn,-0.605819128749999,0.0,0.0,False,NM,8.77e-05,225,full,False,8.77e-05
mp-1186451,Pm2CoCu,-0.062656988749999,0.0,0.0,True,FiM,0.3195561,225,full,True,0.3195561
mp-863660,Pm2CoIr,-0.41609804375,0.0,0.0,True,FiM,1.0285196,225,full,True,1.0285196
mp-1186456,Pm2CoNi,-0.096877411249998,0.0,0.0,True,FiM,1.2895406,225,full,True,1.2895406
mp-1186457,Pm2CoRu,-0.0964875475,0.0,0.0,True,FiM,1.236321,225,full,True,1.236321
mp-1186452,Pm2CuAu,-0.465778296249999,0.0,0.0,False,NM,1.42e-05,225,full,False,1.42e-05
mp-863664,Pm2CuGe,-0.510325878750002,0.0,0.0,False,NM,4.58e-05,225,full,False,4.58e-05
mp-863665,Pm2CuIr,-0.523522236249998,0.0,0.0,False,NM,1e-07,225,full,False,1e-07
mp-1186454,Pm2CuNi,-0.19093916125,0.0,0.0,False,NM,1.94e-05,225,full,False,1.94e-05
mp-863668,Pm2CuOs,-0.147919018750002,0.0,0.0,False,NM,0.0,225,full,False,0.0
mp-1186462,Pm2CuPd,-0.47875115375,0.0,0.0,False,NM,2.5300000000000005e-05,225,full,False,2.5300000000000005e-05
mp-863669,Pm2CuPt,-0.698361048749998,0.0,0.0,False,NM,2.5300000000000005e-05,225,full,False,2.5300000000000005e-05
mp-863670,Pm2CuRh,-0.477929416249999,0.0,0.0,False,NM,0.0,225,full,False,0.0
mp-863671,Pm2CuRu,-0.21793904,0.0,0.0,False,NM,1e-07,225,full,False,1e-07
mp-865547,Pm2CuSi,-0.411085364999998,0.0,0.0,False,NM,0.001275699999999,225,full,False,0.001275699999999
mp-863676,Pm2CuSn,-0.470648708750001,0.0,0.0,False,NM,0.0013329,225,full,False,0.0013329
mp-1100765,Pm2GaAg,-0.478967364999999,0.0,0.0,True,FM,0.2749566,225,full,True,0.2749566
mp-1186453,Pm2GaCu,-0.394878406250001,0.0,0.0,False,NM,0.002808299999999,225,full,False,0.002808299999999
mp-1186461,Pm2GaHg,-0.598409183124999,0.0,0.0,True,FM,0.8315442,225,full,True,0.8315442
mp-1186509,Pm2GaRu,-0.3774039625,0.0,0.0,False,NM,0.000426699999999,225,full,False,0.000426699999999
mp-1186460,Pm2GaSn,-0.6260952887500011,0.0,0.0,False,NM,8e-06,225,full,False,8e-06
mp-863684,Pm2GeAu,-0.825982106249998,0.0,0.0,True,FM,0.8909284,225,full,True,0.8909284
mp-863685,Pm2GePd,-0.7416578500000011,0.0,0.0,False,NM,3e-06,225,full,False,3e-06
mp-863686,Pm2HgGe,-0.6666754206250011,0.0,0.0,False,NM,2.299999999999998e-06,225,full,False,2.299999999999998e-06
mp-982615,Pm2InAg,-0.465665762500002,0.0,0.0,True,FM,0.2940769,225,full,True,0.2940769
mp-982613,Pm2InHg,-0.603960540625003,0.0,0.0,True,FM,0.8650606,225,full,True,0.8650606
mp-1186508,Pm2InSn,-0.6327155737500011,0.0,0.0,False,NM,6.05e-05,225,full,False,6.05e-05
mp-863715,Pm2IrAu,-0.817601913749996,0.0,0.0,False,NM,3e-06,225,full,False,3e-06
mp-863716,Pm2IrPd,-0.821508691250002,0.0,0.0,False,NM,4.9000000000000005e-06,225,full,False,4.9000000000000005e-06
mp-863721,Pm2IrPt,-0.9635367787499972,0.0,0.0,False,NM,9e-07,225,full,False,9e-07
mp-863722,Pm2IrRh,-0.749361968750001,0.0,0.0,False,NM,0.0013599,225,full,False,0.0013599
mp-863740,Pm2IrRu,-0.455494499999999,0.0,0.0,False,NM,0.0001706,225,full,False,0.0001706
mp-863698,Pm2MgAl,-0.254176395,0.0,0.0,False,NM,5.5e-06,225,full,False,5.5e-06
mp-1186474,Pm2MgCd,-0.191278022499999,0.0,0.0,False,NM,4.63e-05,225,full,False,4.63e-05
mp-863705,Pm2MgGa,-0.331468791875,0.0,0.0,False,NM,5.6600000000000014e-05,225,full,False,5.6600000000000014e-05
mp-1186475,Pm2MgGe,-0.369819131249999,0.0,0.0,False,NM,1e-05,225,full,False,1e-05
mp-1186472,Pm2MgRu,-0.089125359999997,0.0,0.0,False,NM,5e-07,225,full,False,5e-07
mp-863696,Pm2MgSi,-0.264322742500001,0.0,0.0,False,NM,6.7e-06,225,full,False,6.7e-06
mp-863703,Pm2MgSn,-0.43075507625,0.0,0.0,False,NM,4.9600000000000006e-05,225,full,False,4.9600000000000006e-05
mp-863704,Pm2MgTl,-0.249193483333336,0.0,0.0,False,NM,0.000138699999999,225,full,False,0.000138699999999
mp-1186485,Pm2NiGe,-0.47923651125,0.0,0.0,False,NM,7.21e-05,225,full,False,7.21e-05
mp-863713,Pm2NiIr,-0.519600313749999,0.0,0.0,False,NM,3.7900000000000006e-05,225,full,False,3.7900000000000006e-05
mp-1186481,Pm2NiPd,-0.496712353749998,0.0,0.0,False,NM,0.0003075,225,full,False,0.0003075
mp-1186482,Pm2NiPt,-0.66270039625,0.0,0.0,False,NM,0.0071927,225,full,False,0.0071927
mp-863714,Pm2NiRh,-0.489082573749996,0.0,0.0,False,NM,0.0,225,full,False,0.0
mp-863717,Pm2NiRu,-0.211155755,0.0,0.0,False,NM,0.0159668,225,full,False,0.0159668
mp-1186473,Pm2PdAu,-0.828619471249999,0.0,0.0,False,NM,8.7e-06,225,full,False,8.7e-06
mp-863725,Pm2PdPt,-1.007626048749998,0.0,0.0,False,NM,2.8e-06,225,full,False,2.8e-06
mp-863726,Pm2PdRh,-0.7872124312499971,0.0,0.0,False,NM,1e-07,225,full,False,1e-07
mp-863741,Pm2PdRu,-0.5072897900000011,0.0,0.0,False,NM,9.5e-05,225,full,False,9.5e-05
mp-982772,Pm2PtAu,-1.024383191250002,0.0,0.0,False,NM,3.1400000000000004e-05,225,full,False,3.1400000000000004e-05
mp-863732,Pm2PtRh,-0.966914661250001,0.0,0.0,False,NM,3.9e-06,225,full,False,3.9e-06
mp-863733,Pm2RuAu,-0.5138721350000061,0.0,0.0,True,FM,0.1518504,225,full,True,0.1518504
mp-1186486,Pm2RuPt,-0.661072997499999,0.0,0.0,True,FM,0.2185045,225,full,True,0.2185045
mp-863742,Pm2RuRh,-0.456424032499999,0.0,0.0,False,NM,9e-07,225,full,False,9e-07
mp-863743,Pm2SiAg,-0.477061936249999,0.0,0.0,False,NM,0.0003848,225,full,False,0.0003848
mp-865545,Pm2SiAu,-0.7100191050000001,0.0,0.0,True,FM,0.819928999999999,225,full,True,0.819928999999999
mp-866204,Pm2SiHg,-0.5530704818750001,0.0,0.0,False,NM,4.5e-06,225,full,False,4.5e-06
mp-866209,Pm2SiNi,-0.380153879999998,0.146940745937499,0.0,False,NM,2.5200000000000003e-05,225,full,False,2.5200000000000003e-05
mp-865468,Pm2SiPd,-0.700638282499998,0.0,0.0,False,NM,7e-07,225,full,False,7e-07
mp-1186479,Pm2SiPt,-0.8284620799999971,0.0,0.0,False,NM,1.3900000000000002e-05,225,full,False,1.3900000000000002e-05
mp-865467,Pm2SnAu,-0.8121548862499991,0.0,0.0,True,FM,0.9316095,225,full,True,0.9316095
mp-977372,Pm2SnHg,-0.690669843125,0.0,0.0,False,NM,5.2100000000000006e-05,225,full,False,5.2100000000000006e-05
mp-864628,Pm2SnPd,-0.7636027337500011,0.0,0.0,False,NM,0.0044452,225,full,False,0.0044452
mp-1100762,Pm2TlAg,-0.408993537500002,0.0,0.0,True,FM,0.2653373,225,full,True,0.2653373
mp-864629,Pm2TlCd,-0.467114478749998,0.0,0.0,True,FM,0.9208765,225,full,True,0.9208765
mp-1186478,Pm2TlHg,-0.551013840625003,0.0,0.0,True,FM,0.9217226,225,full,True,0.9217226
mp-1186476,Pm2TlSn,-0.5949271487500021,0.0,0.0,False,NM,1.2e-06,225,full,False,1.2e-06
mp-1186477,Pm2TlZn,-0.419293427500001,0.0,0.0,False,NM,0.0202252,225,full,False,0.0202252
mp-982393,Pm2ZnAg,-0.308341131250003,0.0,0.0,False,NM,2.63e-05,225,full,False,2.63e-05
mp-977546,Pm2ZnGa,-0.5177212025000021,0.0,0.0,False,NM,2.1600000000000003e-05,225,full,False,2.1600000000000003e-05