material_id,formula,formation_energy,ehull,band_gap,is_magnetic_x,magnetic_ordering,total_magnetization_x,spacegroup,heusler_type,is_magnetic_y,total_magnetization_y
mp-865340,Tm2HgOs,-0.411117404374998,0.083625281328124,0.0,False,NM,7e-06,225,full,False,7e-06
mp-1187823,Tm2InHg,-0.5481423243750071,0.0048217625,0.0,False,NM,8.33e-05,225,full,False,8.33e-05
mp-865341,Tm2InOs,-0.408798877500004,0.085675143466794,0.0,False,NM,6.900000000000002e-05,225,full,False,6.900000000000002e-05
mp-865343,Tm2IrOs,-0.5629374800000031,0.132474065468751,0.0,False,NM,0.0102873,225,full,False,0.0102873
mp-865354,Tm2IrPd,-0.986257960000002,0.0,0.0,False,NM,4e-07,225,full,False,4e-07
mp-1187565,Tm2IrPt,-1.095071167500003,0.041715000000002,0.0,False,NM,0.0162886,225,full,False,0.0162886
mp-866085,Tm2IrRh,-0.9737402075000052,0.0,0.0,False,NM,0.0003322,225,full,False,0.0003322
mp-865381,Tm2IrRu,-0.720227205000003,0.0,0.0,False,NM,2.2e-06,225,full,False,2.2e-06
mp-865356,Tm2MgAl,-0.243908448750005,0.0,0.0,False,NM,0.000177799999999,225,full,False,0.000177799999999
mp-1187598,Tm2MgCd,-0.156771716250005,0.008981247499997,0.0,False,NM,1.62e-05,225,full,False,1.62e-05
mp-865359,Tm2MgIn,-0.271396505416669,0.0,0.0,False,NM,0.0006759,225,full,False,0.0006759
mp-865360,Tm2MgIr,-0.495490328750003,0.105160283875,0.0,False,NM,0.020896599999999,225,full,False,0.020896599999999
mp-865361,Tm2MgOs,-0.255954978750001,0.043622588359369,0.0,False,NM,0.0,225,full,False,0.0
mp-865363,Tm2MgRu,-0.230998693750003,0.069690429375,0.0,False,NM,1.8100000000000003e-05,225,full,False,1.8100000000000003e-05
mp-865449,Tm2MgTc,-0.037073105000003,0.075096580624998,0.0,False,NM,0.0002936,225,full,False,0.0002936
mp-971705,Tm2MgTl,-0.179662072083338,0.025296336249998,0.0,False,NM,0.0134305,225,full,False,0.0134305
mp-865451,Tm2MnOs,-0.076874736982762,0.162148905392243,0.0,True,FiM,3.5955298,225,full,True,3.5955298
mp-865365,Tm2NiIr,-0.7335804950000041,0.010977292656249,0.0,False,NM,0.0002351,225,full,False,0.0002351
mp-865368,Tm2NiOs,-0.383494925000001,0.036168254750002,0.0,False,NM,0.001536799999999,225,full,False,0.001536799999999
mp-1187625,Tm2NiPt,-0.864475592500002,0.043949565000001,0.0,False,NM,0.025224,225,full,False,0.025224
mp-865367,Tm2NiRu,-0.477954082500001,0.0,0.0,False,NM,0.002525899999999,225,full,False,0.002525899999999
mp-865369,Tm2OsAu,-0.6361541900000061,0.093918236,0.0,False,NM,4e-07,225,full,False,4e-07
mp-865374,Tm2OsPd,-0.695647122499998,0.00807758632812,0.0,False,NM,9e-07,225,full,False,9e-07
mp-865375,Tm2OsRh,-0.5784153750000051,0.081057987249998,0.0,False,NM,4e-07,225,full,False,4e-07
mp-865383,Tm2OsRu,-0.281596282500005,0.102667028437497,0.0,False,NM,2.67e-05,225,full,False,2.67e-05
mp-1187605,Tm2PdAu,-0.9635711550000032,0.030991931249999,0.0,False,NM,2.92e-05,225,full,False,2.92e-05
mp-865380,Tm2PdPt,-1.203962087500002,0.024234528124999,0.0,False,NM,9.3e-06,225,full,False,9.3e-06
mp-1187639,Tm2PdRh,-0.950641900000002,0.011184892499999,0.0,False,NM,8e-07,225,full,False,8e-07
mp-865384,Tm2PdRu,-0.7309803975000011,0.0,0.0,False,NM,2e-07,225,full,False,2e-07
mp-1187583,Tm2PtRh,-1.107996895000003,0.040238445,0.0,False,NM,0.0059418,225,full,False,0.0059418
mp-1187585,Tm2RuAu,-0.6460549550000041,0.0,0.0,False,NM,8e-06,225,full,False,8e-06
mp-866119,Tm2RuPt,-0.876507530000002,0.0,0.0,False,NM,2.8e-06,225,full,False,2.8e-06
mp-866122,Tm2RuRh,-0.722199970000003,0.0,0.0,False,NM,2e-07,225,full,False,2e-07
mp-1187589,Tm2TcAg,-0.202943497576754,0.086070841041667,0.0,False,NM,0.0001092,225,full,False,0.0001092
mp-866120,Tm2TlAg,-0.405420333750001,0.0,0.0,False,NM,1.2e-06,225,full,False,1.2e-06
mp-977589,Tm2TlCd,-0.291291478333342,0.0,0.0,False,NM,0.0028352,225,full,False,0.0028352
mp-981381,Tm2TlHg,-0.478607924375005,0.0,0.0,False,NM,2.77e-05,225,full,False,2.77e-05
mp-1187601,Tm2TlZn,-0.382602256250002,0.043889372500004,0.0,False,NM,0.0009899,225,full,False,0.0009899
mp-971979,Tm2ZnAg,-0.374587262500003,0.005480029999997,0.0,False,NM,8.7e-06,225,full,False,8.7e-06
mp-1187587,Tm2ZnAu,-0.688506626250003,0.016894341250001,0.0,False,NM,0.0,225,full,False,0.0
mp-971982,Tm2ZnCu,-0.308457102500002,0.013774455,0.0,False,NM,1.51e-05,225,full,False,1.51e-05
mp-972244,Tm2ZnGa,-0.544842446250005,0.0258924671875,0.0,False,NM,6.799999999999997e-06,225,full,False,6.799999999999997e-06
mp-972274,Tm2ZnHg,-0.471823413125008,0.013091164999998,0.0,False,NM,5e-07,225,full,False,5e-07
mp-1187650,Tm2ZnIn,-0.468454053750001,0.035181132083309,0.0,False,NM,8.32e-05,225,full,False,8.32e-05
mp-865237,Tm2ZnIr,-0.688207760000004,0.016240180000002,0.0,False,NM,9e-07,225,full,False,9e-07
mp-865236,Tm2ZnOs,-0.419894343750002,0.00291381421875,0.0,False,NM,3.65e-05,225,full,False,3.65e-05
mp-1187599,Tm2ZnPd,-0.6430384100000031,0.007175002499998,0.0,False,NM,5.799999999999999e-06,225,full,False,5.799999999999999e-06
mp-865338,Tm2ZnPt,-0.833659437500001,0.012348472916667,0.0,False,NM,9.199999999999997e-06,225,full,False,9.199999999999997e-06
mp-972022,Tm2ZnRh,-0.647074820000002,0.018838754999999,0.0,False,NM,3.5e-06,225,full,False,3.5e-06
mp-865351,Tm2ZnRu,-0.415417280000004,0.0,0.0,False,NM,6.099999999999997e-06,225,full,False,6.099999999999997e-06
mp-865401,Tm2ZnTc,-0.237875654270837,0.070032871041664,0.0,False,NM,0.003193199999999,225,full,False,0.003193199999999
mp-980426,TmAlAg2,-0.353009867499999,0.0,0.0,False,NM,3e-07,225,full,False,3e-07
mp-972272,TmAlAu2,-0.8127059820981941,0.024627360000003,0.0,False,NM,0.0024729,225,full,False,0.0024729
mp-1206744,TmBiPd,-1.015771948333333,0.0,0.0,False,NM,5e-07,216,half,False,5e-07
mp-972400,TmBiPd2,-0.799436512499994,0.076281031249997,0.0,False,NM,0.000200999999999,225,full,False,0.000200999999999
mp-1207057,TmBiPt,-1.16265573166666,0.0,0.0,False,NM,1e-07,216,half,False,1e-07
mp-1207929,TmBiRh,-0.193112276666669,0.47823099738889,0.0,False,NM,0.001058299999999,216,half,False,0.001058299999999
mp-865873,TmCdAg2,-0.264012183333333,0.0,0.0,False,NM,1.2e-06,225,full,False,1.2e-06
mp-865887,TmCdAu2,-0.660687274999999,0.004863387500004,0.0,False,NM,7e-07,225,full,False,7e-07
mp-865983,TmCdHg2,-0.318185343750007,0.0,0.0,False,NM,1.5e-06,225,full,False,1.5e-06
mp-865982,TmCdPd2,-0.7535983124999951,0.0,0.0,False,NM,1e-07,225,full,False,1e-07
mp-865202,TmCdPt2,-0.845438252500001,0.0209861375,0.0,False,NM,1.6e-06,225,full,False,1.6e-06
mp-865206,TmCdRh2,-0.6039427575,0.0,0.0,False,NM,1e-07,225,full,False,1e-07
mp-1187580,TmCo2Sn,-0.298786728750001,0.058231054375,0.0,True,FiM,1.0282339,225,full,True,1.0282339
mp-1187604,TmGaCu2,-0.401299694676843,0.040283933333334,0.0,False,NM,0.0002305,225,full,False,0.0002305
mp-1187602,TmGaNi2,-0.475737936875001,0.110141976145825,0.0,False,NM,9.16e-05,225,full,False,9.16e-05
mp-1187596,TmGaPd2,-0.890571324999996,0.018588117708329,0.0,False,NM,0.0001468,225,full,False,0.0001468
mp-865195,TmGaRh2,-0.881769229375001,0.0,0.0,False,NM,1.85e-05,225,full,False,1.85e-05
mp-982739,TmHfCo2,-0.2846462275,0.096299489000002,0.0,True,FiM,1.3257183,225,full,True,1.3257183
mp-980201,TmHfIr2,-0.907993967500001,0.043313970000001,0.0,False,NM,0.0002183,225,full,False,0.0002183
mp-865209,TmHfOs2,-0.5468488650000011,0.088303371328123,0.0,False,NM,2e-06,225,full,False,2e-06
mp-865215,TmHfRu2,-0.629760687499999,0.0,0.0,False,NM,5e-07,225,full,False,5e-07
mp-569440,TmInAg2,-0.396100142499999,0.0,0.0,False,NM,7.599999999999997e-06,225,full,False,7.599999999999997e-06
mp-568830,TmInAu2,-0.778851024999994,0.000762892777778,0.0,False,NM,3.799999999999998e-06,225,full,False,3.799999999999998e-06
mp-622636,TmInCu2,-0.375569032500003,0.011730981562497,0.0,False,NM,1e-06,225,full,False,1e-06
mp-567348,TmInPd2,-0.8462060066666681,0.0,0.0,False,NM,1.5e-06,225,full,False,1.5e-06
mp-1187679,TmInPt2,-1.054509035000002,0.038038312499992,0.0,False,NM,1e-07,225,full,False,1e-07
mp-865211,TmInRh2,-0.7958948091666671,0.0,0.0,False,NM,3.1e-06,225,full,False,3.1e-06
mp-1187611,TmLuAg2,-0.358918496666664,0.0,0.0,False,NM,3.1200000000000006e-05,225,full,False,3.1200000000000006e-05
mp-1187607,TmLuAu2,-0.982737836666665,0.013646011250003,0.0,False,NM,2.5e-05,225,full,False,2.5e-05
mp-980669,TmLuCo2,-0.237515956666669,0.0,0.0,True,FiM,0.831148999999999,225,full,True,0.831148999999999
mp-1187606,TmLuCu2,-0.308286731666669,0.0,0.0,False,NM,2.7e-06,225,full,False,2.7e-06
mp-972478,TmLuHg2,-0.5510509854166651,0.005548995000005,0.0,False,NM,0.0012718,225,full,False,0.0012718
mp-972455,TmLuIn2,-0.523107916666663,0.011427070833327,0.0,False,NM,4.16e-05,225,full,False,4.16e-05
mp-972412,TmLuIr2,-0.963316166666668,0.019843045000001,0.0,False,NM,0.1256868,225,full,False,0.1256868
mp-865210,TmLuMg2,-0.033474039166669,0.003314475833332,0.0,False,NM,2.299999999999998e-06,225,full,False,2.299999999999998e-06
mp-972410,TmLuPd2,-0.990671981666665,0.006564284999996,0.0,False,NM,7.4e-06,225,full,False,7.4e-06
mp-981541,TmLuRh2,-0.993606736666668,0.009680634999998,0.0,False,NM,6e-07,225,full,False,6e-07
mp-983312,TmLuRu2,-0.442904681666666,0.0,0.0,False,NM,0.0,225,full,False,0.0
mp-980071,TmLuTl2,-0.268263953333342,0.0,0.0,False,NM,0.0001256,225,full,False,0.0001256
mp-980198,TmLuZn2,-0.402854489166664,0.003719117500001,0.0,False,NM,1e-07,225,full,False,1e-07
mp-979073,TmMg2Sc,-0.02263321375,0.016503104375,0.0,False,NM,2.299999999999998e-06,225,full,False,2.299999999999998e-06
mp-971868,TmMgAg2,-0.293119659583333,0.0,0.0,False,NM,2.499999999999999e-06,225,full,False,2.499999999999999e-06
mp-865225,TmMgAu2,-0.7831241212500021,0.0,0.0,False,NM,6.4e-06,225,full,False,6.4e-06
mp-865227,TmMgCd2,-0.249731388750002,0.0,0.0,False,NM,6.099999999999997e-06,225,full,False,6.099999999999997e-06
mp-865981,TmMgHg2,-0.424158312500002,0.0,0.0,False,NM,4e-07,225,full,False,4e-07
mp-1187590,TmMgPd2,-0.8383072487500011,0.0,0.0,False,NM,8e-07,225,full,False,8e-07
mp-978984,TmMgPt2,-1.051589876250003,0.0,0.0,False,NM,5.799999999999999e-06,225,full,False,5.799999999999999e-06
mp-865230,TmMgRh2,-0.766771506249997,0.0,0.0,False,NM,2.499999999999999e-06,225,full,False,2.499999999999999e-06
mp-865233,TmMgZn2,-0.31991932125,0.0,0.0,False,NM,1.54e-05,225,full,False,1.54e-05
mp-978995,TmMnRh2,-0.5634323919827581,0.014488595,0.0,True,FiM,4.5626602,225,full,True,4.5626602
mp-865241,TmNbOs2,-0.338724002500001,0.050570595859376,0.0,False,NM,1.699999999999999e-06,225,full,False,1.699999999999999e-06
mp-865248,TmNbRu2,-0.385074432500005,0.0,0.0,False,NM,7e-07,225,full,False,7e-07
mp-865974,TmNi2Sn,-0.504441233750001,0.023650424077376,0.0,False,NM,0.0089657,225,full,False,0.0089657
mp-568269,TmNiBi,-0.650753763333339,0.0,0.149099999999999,False,NM,0.0,216,half,False,0.0
mp-4025,TmNiSb,-0.962272163333336,0.0,0.255199999999999,False,NM,0.0,216,half,False,0.0
mp-865949,TmNpRu2,-0.267250379687507,0.016254957812495,0.0,True,FiM,3.0017501,225,full,True,3.0017501
mp-862776,TmPaOs2,-0.361860437499998,0.0,0.0,False,NM,1.699999999999999e-06,225,full,False,1.699999999999999e-06
mp-862777,TmPaRu2,-0.453747850000006,0.0,0.0,False,NM,0.022036,225,full,False,0.022036
mp-865788,TmPaTc2,-0.243465782499995,0.0,0.0,False,NM,0.000157499999999,225,full,False,0.000157499999999
mp-1206954,TmPd2Pb,-0.709370752499999,0.016517598749999,0.0,False,NM,1.5e-06,225,full,False,1.5e-06
mp-1187664,TmReTc2,0.005909674374997,0.206260311562498,0.0,False,NM,0.0003538,225,full,False,0.0003538
mp-865787,TmRh2Pb,-0.585495602499999,0.0,0.0,True,FM,0.8555573,225,full,True,0.8555573
mp-1018118,TmSbPd,-0.766460703602144,0.271516993333335,0.3559,False,NM,0.0,216,half,False,0.0
mp-866205,TmSbPd2,-0.904551244999996,0.006254382903225,0.0,False,NM,1e-07,225,full,False,1e-07
mp-16314,TmSbPt,-1.378186306666667,0.0,0.0,False,NM,0.0,216,half,False,0.0
mp-1187603,TmSbRh2,-0.754990390000001,0.069679923749999,0.0,False,NM,0.0078074,225,full,False,0.0078074
mp-980392,TmScHg2,-0.5198028825000021,0.003657652500002,0.0,False,NM,5.4e-06,225,full,False,5.4e-06
mp-1187564,TmScPd2,-0.92970193875,0.0161382675,0.0,False,NM,5e-07,225,full,False,5e-07
mp-980206,TmScRu2,-0.47222434625,0.0,0.0,False,NM,2e-07,225,full,False,2e-07
mp-1187670,TmScZn2,-0.35981797625,0.008114869999999,0.0,False,NM,3.9e-06,225,full,False,3.9e-06
mp-3462,TmSnAu,-0.8328357016666691,0.0,0.0,False,NM,1e-07,216,half,False,1e-07
mp-3942,TmSnPd2,-0.8957184762499991,0.0,0.0,False,NM,5.799999999999999e-06,225,full,False,5.799999999999999e-06
mp-865252,TmSnRh2,-0.8356537712500011,0.0,0.0,True,FM,0.7648062,225,full,True,0.7648062
mp-865249,TmSnRu2,-0.411949098749999,0.0,0.0,False,NM,2.75e-05,225,full,False,2.75e-05
mp-865270,TmTaOs2,-0.428353349333328,0.0,0.0,False,NM,1.5e-06,225,full,False,1.5e-06
mp-865262,TmTaRu2,-0.458079251833332,0.0,0.0,False,NM,6.5e-06,225,full,False,6.5e-06
mp-865250,TmTc2W,-0.06547779625,0.140069338750002,0.0,False,NM,0.000742599999999,225,full,False,0.000742599999999
mp-980647,TmThOs2,-0.29910461,0.1417719875,0.0,False,NM,1.18e-05,225,full,False,1.18e-05
mp-980648,TmThRu2,-0.479417117499997,0.0,0.0,False,NM,0.0003636,225,full,False,0.0003636
mp-865251,TmThTc2,-0.141338013051466,0.098271558749999,0.0,False,NM,4.68e-05,225,full,False,4.68e-05
mp-865288,TmTlRh2,-0.5773008233333351,0.0,0.0,False,NM,1.25e-05,225,full,False,1.25e-05
mp-865273,TmUTc2,-0.105548870000028,0.154970863749994,0.0,True,FM,0.8084175,225,full,True,0.8084175
mp-865298,TmZnPd2,-0.7796653200000021,0.011171605416665,0.0,False,NM,3e-07,225,full,False,3e-07
mp-865299,TmZnRh2,-0.716732584999998,0.0,0.0,False,NM,1.05e-05,225,full,False,1.05e-05
mp-1187628,TmZrCo2,-0.246976027500002,0.0054185346875,0.0,True,FiM,1.3271859,225,full,True,1.3271859
mp-865275,TmZrOs2,-0.487726223750001,0.058021058828124,0.0,False,NM,9e-07,225,full,False,9e-07
mp-865277,TmZrRu2,-0.5661062575000011,0.0,0.0,False,NM,2.499999999999999e-06,225,full,False,2.499999999999999e-06
mp-19872,UAl2Cu,0.268882297500002,0.474464690052084,0.0,True,FM,0.3713063,225,full,True,0.3713063
mp-865421,UGaTc2,-0.17047626875,0.058116727727288,0.0,False,NM,0.0001603,225,full,False,0.0001603
mp-20358,UInAu2,-0.407821551250002,0.016854263928571,0.0,True,FM,2.7375591,225,full,True,2.7375591
mp-646821,UInNi2,-0.096005836666663,0.114687900494505,0.0,True,FiM,1.2879528,225,full,True,1.2879528
mp-672374,UNi2Sn,-0.211664506249997,0.033436515307204,0.0,False,NM,0.0229969,225,full,False,0.0229969
mp-21425,UNiSn,-0.097125218333327,0.128709988333336,0.012899999999998,True,FiM,2.0000002,216,half,True,2.0000002
mp-567435,UNiSn,0.8579868583333361,1.083822064999999,0.0,True,FiM,0.054216,216,half,True,2.0000002
mp-672385,UNiSn,0.6011161216666691,0.8269513283333331,0.0,True,FiM,2.0000003,216,half,True,2.0000002
mp-1206611,UPd2Pb,-0.279129574166674,0.170844982916662,0.0,True,FM,0.1349573,225,full,True,0.1349573
mp-1207137,USbPd2,-0.551982026250009,0.105462678437497,0.0,True,FM,2.2659534,225,full,True,2.2659534
mp-10624,USbRh,-0.577150163333327,0.0,0.0,True,FM,2.0012883,216,half,True,2.0012883
mp-30419,USnAu2,-0.229006031249995,0.009695491875003,0.0,True,FM,2.7605312,225,full,True,2.7605312
mp-30848,USnPt,-0.499763151666666,0.009649762962959,0.0,True,FM,2.0109055,216,half,True,2.0109055
mp-865409,UTc2Sn,-0.079354671249998,0.0,0.0,True,FiM,1.0108771,225,full,True,1.0108771
mp-865490,V2CrFe,-0.1609811425,0.0,0.0,False,NM,4.6500000000000005e-05,225,full,False,4.6500000000000005e-05
mp-865485,V2CrOs,-0.324751372499999,0.0,0.0,True,FiM,0.077392999999999,225,full,True,0.077392999999999
mp-865484,V2CrRe,-0.234624835624998,0.00451777125,0.0,False,NM,0.0146608,225,full,False,0.0146608
mp-865494,V2CrRu,-0.223364091249997,0.011705994999999,0.0,False,NM,3.83e-05,225,full,False,3.83e-05
mp-865495,V2CrTc,-0.214846122500002,0.004401685000001,0.0,False,NM,0.0013482,225,full,False,0.0013482
mp-631442,V2CuBr,0.514859423749999,0.968199435,0.0,True,FM,1.4110302,225,full,True,1.4110302
mp-972205,V2MoOs,-0.371999572500001,0.0,0.0,False,NM,0.0,225,full,False,0.0
mp-972204,V2MoRu,-0.302311183750003,0.0,0.0,False,NM,2.1e-06,225,full,False,2.1e-06
mp-972236,V2MoW,-0.08955719,0.0,0.0,False,NM,1.0800000000000002e-05,225,full,False,1.0800000000000002e-05
mp-1067900,V2NiSb,0.060889666535715,0.312869289285714,0.0,True,FiM,0.844380999999999,216,full,True,0.844380999999999
mp-971737,V2OsRu,-0.327672463750001,0.004115578125002,0.0,True,FiM,1.515507599999999,225,full,True,1.515507599999999
mp-1187694,V2OsW,-0.301050762499997,0.0,0.0,False,NM,7.299999999999999e-06,225,full,False,7.299999999999999e-06
mp-979259,V2ReMo,-0.327485118125,0.0,0.0,False,NM,3.54e-05,225,full,False,3.54e-05
mp-865497,V2ReOs,-0.398306208125006,0.0,0.0,False,NM,0.0139562,225,full,False,0.0139562
mp-981365,V2ReRu,-0.363411096875001,0.0,0.0,True,FiM,0.6720389,225,full,True,0.6720389
mp-981377,V2ReTc,-0.440655920624998,0.0,0.0,False,NM,1e-05,225,full,False,1e-05
mp-971754,V2ReW,-0.289617043124998,0.0,0.0,False,NM,5e-07,225,full,False,5e-07
mp-865499,V2TcOs,-0.423329287499999,0.0,0.0,False,NM,0.0013563,225,full,False,0.0013563
mp-865501,V2TcRu,-0.376946578750001,0.0,0.0,False,NM,0.002186999999999,225,full,False,0.002186999999999
mp-1100404,VAsRu,-0.167685217032522,0.270277235833329,0.0,True,FM,0.070375899999999,216,half,True,0.070375899999999
mp-865465,VCo2Ge,-0.232712461250001,0.004143578819442,0.0,True,FM,2.999842499999999,225,full,True,2.999842499999999
mp-20586,VCo2Si,-0.381213402760415,0.027069569739582,0.0,True,FM,2.9867764,225,full,True,2.9867764
mp-21469,VCo2Sn,-0.07959901875,0.054241908749999,0.0,True,FM,2.9955833,225,full,True,2.9955833
mp-4076,VCoSb,-0.189397489999999,0.0,0.0,True,FiM,1.0003715,216,half,True,1.0003715
mp-1018119,VCoSn,0.465051341666665,0.59235368236111,0.0,False,NM,0.0021257,216,half,False,0.0021257
mp-1008631,VCoTe,-0.153596478888889,0.243588008203704,0.0,True,FM,1.9978259,216,half,True,1.9978259
mp-979910,VCuRh2,-0.322075322499998,0.0,0.0,False,NM,1.55e-05,225,full,False,1.55e-05
mp-4595,VFe2Si,-0.46254781,0.0,0.0,True,FiM,0.8869566,225,full,True,0.8869566
mp-636359,VFe2Sn,0.002712658750001,0.104296474218751,0.0,True,FiM,0.9118522,225,full,True,0.9118522
mp-980749,VFeRu2,-0.106915669999999,0.014310354166662,0.0,True,FM,4.6778888,225,full,True,4.6778888
mp-10756,VFeSb,0.168836146666667,0.444055243333332,0.0,True,FiM,0.5286293,216,half,True,0.5286293
mp-567636,VFeSb,-0.275219096666666,0.0,0.3487,False,NM,0.0,216,half,True,0.5286293
mp-961658,VFeSe,-0.313655224114583,0.311804770833326,0.0,True,FiM,0.9830704,216,half,True,0.9830704
mp-961656,VFeTe,-0.218307088888888,0.167609041722223,0.0,True,FiM,0.9946684,216,half,True,0.9946684
mp-22790,VGaCo2,-0.327270957499999,0.0,0.0,True,FM,1.999157299999999,225,full,True,1.999157299999999
mp-21883,VGaFe2,-0.298421076874999,0.0,0.0,False,NM,0.0,225,full,False,0.0
mp-961690,VGaNi,0.274683158300222,0.6008006849999991,0.0,False,NM,0.000637699999999,216,half,False,0.000637699999999
mp-30658,VGaNi2,-0.283245548918014,0.022365973101852,0.0,False,NM,7.890000000000003e-05,225,full,False,7.890000000000003e-05
mp-1187713,VGaOs2,-0.337197567499998,0.0,0.0,False,NM,2.34e-05,225,full,False,2.34e-05
mp-961688,VGaPt,-0.124636099166666,0.399983833333334,0.0,False,NM,0.0058411,216,half,False,0.0058411
mp-865586,VGaRu2,-0.5506506,0.0,0.0,False,NM,0.0,225,full,False,0.0
mp-865471,VGaTc2,-0.304928472499998,0.0,0.0,False,NM,0.000642099999999,225,full,False,0.000642099999999
mp-961674,VGePt,-0.129194331666666,0.327028568333332,0.0,True,FM,0.4287977,216,half,True,0.4287977
mp-1100423,VGeRh,-0.076892295,0.371905501666664,0.0,False,NM,2.1200000000000004e-05,216,half,False,2.1200000000000004e-05
mp-865585,VGeRu2,-0.364228588749998,0.0,0.0,True,FiM,1.008634,225,full,True,1.008634
mp-961717,VInPt,0.131659474444444,0.596662853333333,0.0,False,NM,0.001256599999999,216,half,False,0.001256599999999
mp-20864,VNi2Sn,-0.114786526249999,0.114143995486108,0.0,True,FM,0.3773979,225,full,True,0.3773979
mp-505599,VNiSb,-0.124684422309523,0.128043692857144,0.0,True,FM,2.0001096,216,half,True,2.0001096
mp-631436,VOsCl,0.579969546944454,1.496778129444443,0.0,True,FiM,0.0330724,216,half,True,0.0330724
mp-1100417,VSbRh,-0.283458533055555,0.161332801388887,0.0,True,FM,0.9988245,216,half,True,0.9988245