material_id,formula,formation_energy,ehull,band_gap,is_magnetic,magnetic_ordering,total_magnetization,spacegroup
mp-865215,TmHfRu2,-0.629760687499999,0.0,0.0,False,NM,5e-07,225
mp-569440,TmInAg2,-0.39610014249999903,0.0,0.0,False,NM,7.599999999999997e-06,225
mp-568830,TmInAu2,-0.778851024999994,0.000762892777778,0.0,False,NM,3.799999999999998e-06,225
mp-1207201,TmInCo4,-0.146893616111112,0.023413844687499002,0.0,True,FiM,4.512757899999999,216
mp-622636,TmInCu2,-0.375569032500003,0.011730981562497,0.0,False,NM,1e-06,225
mp-1024957,TmInCu4,-0.32792603333333104,0.0,0.0,False,NM,1e-06,216
mp-20896,TmInNi4,-0.40601214944444103,0.0,0.0,False,NM,0.0,216
mp-567348,TmInPd2,-0.8462060066666681,0.0,0.0,False,NM,1.5e-06,225
mp-1187679,TmInPt2,-1.054509035000002,0.038038312499992004,0.0,False,NM,1e-07,225
mp-865211,TmInRh2,-0.7958948091666671,0.0,0.0,False,NM,3.1e-06,225
mp-1187611,TmLuAg2,-0.35891849666666403,0.0,0.0,False,NM,3.1200000000000006e-05,225
mp-1187607,TmLuAu2,-0.982737836666665,0.013646011250003,0.0,False,NM,2.5e-05,225
mp-980669,TmLuCo2,-0.23751595666666903,0.0,0.0,True,FiM,0.831148999999999,225
mp-1187606,TmLuCu2,-0.30828673166666903,0.0,0.0,False,NM,2.7e-06,225
mp-972478,TmLuHg2,-0.5510509854166651,0.0055489950000050005,0.0,False,NM,0.0012718,225
mp-972455,TmLuIn2,-0.523107916666663,0.011427070833327,0.0,False,NM,4.16e-05,225
mp-972412,TmLuIr2,-0.9633161666666681,0.019843045000001003,0.0,False,NM,0.1256868,225
mp-865210,TmLuMg2,-0.033474039166669,0.003314475833332,0.0,False,NM,2.299999999999998e-06,225
mp-972410,TmLuPd2,-0.990671981666665,0.006564284999996,0.0,False,NM,7.4e-06,225
mp-981541,TmLuRh2,-0.9936067366666681,0.009680634999998002,0.0,False,NM,6e-07,225
mp-983312,TmLuRu2,-0.442904681666666,0.0,0.0,False,NM,0.0,225
mp-980071,TmLuTl2,-0.268263953333342,0.0,0.0,False,NM,0.0001256,225
mp-980198,TmLuZn2,-0.40285448916666405,0.0037191175000010003,0.0,False,NM,1e-07,225
mp-979073,TmMg2Sc,-0.022633213750000002,0.016503104375,0.0,False,NM,2.299999999999998e-06,225
mp-1187610,TmMg3,-0.045474281250001004,0.00224414482143,0.0,False,NM,4e-07,225
mp-971868,TmMgAg2,-0.293119659583333,0.0,0.0,False,NM,2.499999999999999e-06,225
mp-865225,TmMgAu2,-0.7831241212500021,0.0,0.0,False,NM,6.4e-06,225
mp-865227,TmMgCd2,-0.24973138875000203,0.0,0.0,False,NM,6.099999999999997e-06,225
mp-865981,TmMgHg2,-0.424158312500002,0.0,0.0,False,NM,4e-07,225
mp-1187590,TmMgPd2,-0.8383072487500011,0.0,0.0,False,NM,8e-07,225
mp-978984,TmMgPt2,-1.051589876250003,0.0,0.0,False,NM,5.799999999999999e-06,225
mp-865230,TmMgRh2,-0.766771506249997,0.0,0.0,False,NM,2.499999999999999e-06,225
mp-865233,TmMgZn2,-0.31991932125,0.0,0.0,False,NM,1.54e-05,225
mp-978995,TmMnRh2,-0.5634323919827581,0.014488595000000002,0.0,True,FiM,4.5626602,225
mp-1975,TmN,-2.152056234375003,0.0,0.152899999999999,False,NM,0.0,225
mp-865241,TmNbOs2,-0.338724002500001,0.050570595859376004,0.0,False,NM,1.699999999999999e-06,225
mp-865248,TmNbRu2,-0.385074432500005,0.0,0.0,False,NM,7e-07,225
mp-865974,TmNi2Sn,-0.504441233750001,0.023650424077376,0.0,False,NM,0.0089657,225
mp-1077547,TmNi4Au,-0.410863023333333,0.0,0.0,False,NM,0.0778735,216
mp-568269,TmNiBi,-0.650753763333339,0.0,0.149099999999999,False,NM,0.0,216
mp-4025,TmNiSb,-0.9622721633333361,0.0,0.25519999999999904,False,NM,0.0,216
mp-865949,TmNpRu2,-0.26725037968750703,0.016254957812495002,0.0,True,FiM,3.0017501,225
mp-979074,TmO3,-1.9916963612500012,0.5645992034375,0.0,True,FM,3.000012,225
mp-7171,TmP,-1.844200528988096,0.0,0.0,False,NM,2e-07,225
mp-862776,TmPaOs2,-0.361860437499998,0.0,0.0,False,NM,1.699999999999999e-06,225
mp-862777,TmPaRu2,-0.45374785000000606,0.0,0.0,False,NM,0.022036,225
mp-865788,TmPaTc2,-0.243465782499995,0.0,0.0,False,NM,0.00015749999999900002,225
mp-1206954,TmPd2Pb,-0.709370752499999,0.016517598749999002,0.0,False,NM,1.5e-06,225
mp-1187664,TmReTc2,0.005909674374997001,0.20626031156249802,0.0,False,NM,0.0003538,225
mp-865787,TmRh2Pb,-0.585495602499999,0.0,0.0,True,FM,0.8555573,225
mp-1766,TmS,-2.17894752140625,0.0,0.0,False,NM,7.4e-06,225
mp-2520,TmSb,-1.292321835000002,0.0,0.0,False,NM,2e-07,225
mp-1018118,TmSbPd,-0.766460703602144,0.271516993333335,0.35590000000000005,False,NM,0.0,216
mp-866205,TmSbPd2,-0.9045512449999961,0.006254382903225,0.0,False,NM,1e-07,225
mp-16314,TmSbPt,-1.378186306666667,0.0,0.0,False,NM,0.0,216
mp-1187603,TmSbRh2,-0.754990390000001,0.06967992374999901,0.0,False,NM,0.0078074,225
mp-980392,TmScHg2,-0.5198028825000021,0.0036576525000020003,0.0,False,NM,5.4e-06,225
mp-1187564,TmScPd2,-0.9297019387500001,0.0161382675,0.0,False,NM,5e-07,225
mp-980206,TmScRu2,-0.47222434625000004,0.0,0.0,False,NM,2e-07,225
mp-1187670,TmScZn2,-0.35981797625,0.008114869999999,0.0,False,NM,3.9e-06,225
mp-2822,TmSe,-1.898432479531251,0.0,0.0,False,NM,3.9e-06,225
mp-3462,TmSnAu,-0.8328357016666691,0.0,0.0,False,NM,1e-07,216
mp-3942,TmSnPd2,-0.8957184762499991,0.0,0.0,False,NM,5.799999999999999e-06,225
mp-865252,TmSnRh2,-0.8356537712500011,0.0,0.0,True,FM,0.7648062,225
mp-865249,TmSnRu2,-0.411949098749999,0.0,0.0,False,NM,2.75e-05,225
mp-981251,TmTa3,0.34593759083333,0.34593759083333,0.0,False,NM,0.00039319999999900006,225
mp-865270,TmTaOs2,-0.428353349333328,0.0,0.0,False,NM,1.5e-06,225
mp-865262,TmTaRu2,-0.45807925183333204,0.0,0.0,False,NM,6.5e-06,225
mp-865250,TmTc2W,-0.06547779625000001,0.14006933875000202,0.0,False,NM,0.0007425999999990001,225
mp-237,TmTe,-1.369222530000001,0.038291184999998,0.0,False,NM,5e-07,225
mp-980647,TmThOs2,-0.29910461000000005,0.1417719875,0.0,False,NM,1.18e-05,225
mp-980648,TmThRu2,-0.47941711749999705,0.0,0.0,False,NM,0.0003636,225
mp-865251,TmThTc2,-0.141338013051466,0.098271558749999,0.0,False,NM,4.68e-05,225
mp-865288,TmTlRh2,-0.5773008233333351,0.0,0.0,False,NM,1.25e-05,225
mp-865273,TmUTc2,-0.10554887000002801,0.15497086374999403,0.0,True,FM,0.8084175,225
mp-865298,TmZnPd2,-0.7796653200000021,0.011171605416665,0.0,False,NM,3e-07,225
mp-865299,TmZnRh2,-0.716732584999998,0.0,0.0,False,NM,1.0500000000000001e-05,225
mp-1187628,TmZrCo2,-0.24697602750000203,0.0054185346875000005,0.0,True,FiM,1.3271859,225
mp-865275,TmZrOs2,-0.487726223750001,0.05802105882812401,0.0,False,NM,9e-07,225
mp-865277,TmZrRu2,-0.5661062575000011,0.0,0.0,False,NM,2.499999999999999e-06,225
mp-1008669,U,0.371577350000009,0.371577350000009,0.0,True,FM,1.0405299,225
mp-541853,U2(Co7B2)3,-0.257445067068971,0.0,0.0,True,FiM,23.3710443,225
mp-1208129,U2(Fe7B2)3,-0.23325740844827503,0.0051032724137910004,0.0,True,FiM,36.7026404,225
mp-10130,U2(Ni7B2)3,-0.31964163224138403,0.0,0.0,False,NM,0.0028583,225
mp-630265,U3(Si3Pd10)2,-0.701190033275859,0.0,0.0,True,FiM,2.6210432,225
mp-1187642,U3Cd,0.48722166999999605,0.48722166999999605,0.0,False,NM,0.0074074,225
mp-1187776,U3Cu,0.17906566750000502,0.17906566750000502,0.0,False,NM,0.0006087999999990001,225
mp-1187724,U3Pt,-0.22941976875000503,0.20749272374999303,0.0,False,NM,0.0187693,225
mp-569093,U3Si11Pt23,-0.338998797027026,0.37190969221621906,0.0,False,NM,0.2795509,225
mp-1125186,U6Fe16Si7,-0.37914886827586003,0.0,0.0,True,FM,0.239764199999999,216
mp-642279,U6Fe16Si7,-0.367947135862066,0.011201732413796002,0.0,False,NM,0.308809499999999,225
mp-642273,U6Fe16Si7C,-0.39972648649999704,0.0,0.0,True,FM,0.3454154,225
mp-19872,UAl2Cu,0.26888229750000203,0.474464690052084,0.0,True,FM,0.3713063,225
mp-16519,UAlNi4,-0.34729456333333003,0.046674935626779004,0.0,False,NM,0.017471999999999002,216
mp-2104,UAs,-1.145494088750005,0.0,0.0,True,FM,2.7076936,225
mp-22319,UB12,-0.281307531923077,0.0,0.0,False,NM,0.0,225
mp-22886,UBi,0.016656311249988003,0.19096578500000302,0.0,True,FM,2.8979337,225
mp-2489,UC,-0.25545393249999604,0.0,0.0,False,NM,0.0007438999999990001,225
mp-1008642,UC2,0.405466175416663,0.6474366099999991,0.0,False,NM,0.0019984,225
mp-1187692,UCd3,0.27176298999999904,0.27176298999999904,0.0,True,FM,2.9675507,225
mp-13018,UCo4Sn,-0.08880178416666401,0.057371218611113,0.0,False,NM,0.030307499999999002,216
mp-981233,UCr3,0.370156094999998,0.370156094999998,0.0,True,FiM,0.9462219,225
mp-1072653,UCu4Ag,0.08237648555555101,0.082376485555556,0.0,True,FM,1.648001799999999,216
mp-1071839,UCu4Au,-0.036800614999998,0.033398898333333,0.0,True,FM,1.5130297,216
mp-1071877,UCu4Pd,-0.10878206805555601,0.041209450972221,0.160999999999999,False,NM,0.0001247,216
mp-510148,UCu5,0.10227604500000101,0.10227604499999901,0.0,True,FM,1.4492061,216
mp-1187747,UF3,-3.84112589333333,0.151491791250006,0.254599999999999,True,FM,3.000159,225
mp-865421,UGaTc2,-0.17047626875000002,0.05811672772728801,0.0,False,NM,0.0001603,225
mp-20358,UInAu2,-0.407821551250002,0.016854263928571003,0.0,True,FM,2.7375591,225
mp-646821,UInNi2,-0.09600583666666301,0.11468790049450502,0.0,True,FiM,1.2879528,225
mp-672702,UInNi4,-0.21943892611110802,0.011629066526254,0.0,True,FM,0.5966186,216
mp-1076992,UIrPt4,-0.355349856666664,0.16086718700000002,0.0,False,NM,0.001611899999999,216
mp-1865,UN,-1.5816823568749991,0.0,0.0,True,FM,1.4861672,225
mp-1776,UN2,-1.642954397500001,0.0,0.6927000000000001,False,NM,0.0,225
mp-672374,UNi2Sn,-0.21166450624999703,0.033436515307204005,0.0,False,NM,0.0229969,225
mp-22197,UNi4Sn,-0.22155851249999703,0.037128749962607004,0.0,False,NM,0.0024288,216
mp-2838,UNi5,-0.263269469999997,0.0,0.0,False,NM,0.0049497,216
mp-21425,UNiSn,-0.097125218333327,0.12870998833333602,0.012899999999998002,True,FiM,2.0000002,216
mp-567435,UNiSn,0.8579868583333361,1.083822064999999,0.0,True,FiM,0.054216,216
mp-672385,UNiSn,0.6011161216666691,0.8269513283333331,0.0,True,FiM,2.0000003,216
mp-7830,UO,-2.608501917499996,0.211428382741937,0.0,True,FM,2.0006295,225
mp-1597,UO2,-3.75044424,0.0,0.0,True,FM,2.0000001,225
mp-2011,UP,-1.2563255114880931,0.0,0.0,True,FM,2.5536981,225
mp-1206611,UPd2Pb,-0.279129574166674,0.170844982916662,0.0,True,FM,0.1349573,225
mp-1206028,UPdPt4,-0.654855860833331,0.0,0.0,True,FM,2.0240164,216
mp-1077347,UPt4Au,-0.7097542908333401,0.0,0.0,True,FM,1.9899333,216
mp-1072444,UPt5,-0.6187784941666621,0.0,0.0,True,FM,1.1711862,216
mp-2423,US,-1.6763183639062542,0.0,0.0,True,FM,2.8155502,225
mp-519,USb,-0.5050172912499911,0.071301091250006,0.0,True,FM,2.7021691,225
mp-1207137,USbPd2,-0.551982026250009,0.10546267843749701,0.0,True,FM,2.2659534,225
mp-10624,USbRh,-0.577150163333327,0.0,0.0,True,FM,2.0012883,216
mp-2143,USe,-1.223744236171874,0.0,0.0,True,FM,3.183019299999999,225
mp-30419,USnAu2,-0.22900603124999502,0.009695491875003001,0.0,True,FM,2.7605312,225
mp-30848,USnPt,-0.499763151666666,0.009649762962959,0.0,True,FM,2.0109055,216
mp-865409,UTc2Sn,-0.07935467124999801,0.0,0.0,True,FiM,1.0108771,225
mp-2269,UTe,-0.8531871320833411,0.11720769708333001,0.0,True,FM,3.0325716,225
mp-21899,UZnNi4,-0.280642791666662,0.0,0.0,True,FiM,1.4201091,216
mp-8632,V,0.247140399999999,0.247140399999999,0.0,False,NM,2.6e-06,225
mp-688151,V(NCl3)2,0.47162823972222406,1.1947669850000011,0.0,True,FM,4.9906057,225
mp-726732,V(NF2)3,-0.16898478050000001,1.563565104500003,0.0,True,FM,8.0089126,225
mp-1207847,V(NF3)2,-0.7396414222222221,1.185414005555556,0.0,True,FM,5.0007217,225
mp-1193908,V2(Co7B2)3,-0.226812942586212,0.0,0.0,True,FiM,18.1176506,225
mp-1207902,V2(Ni7B2)3,-0.276274094999999,0.004256709310341,0.0,False,NM,0.0006874,225
mp-865490,V2CrFe,-0.1609811425,0.0,0.0,False,NM,4.6500000000000005e-05,225
mp-865485,V2CrOs,-0.324751372499999,0.0,0.0,True,FiM,0.077392999999999,225
mp-865484,V2CrRe,-0.23462483562499803,0.00451777125,0.0,False,NM,0.0146608,225
mp-865494,V2CrRu,-0.223364091249997,0.011705994999999001,0.0,False,NM,3.83e-05,225
mp-865495,V2CrTc,-0.214846122500002,0.004401685000001001,0.0,False,NM,0.0013482,225
mp-631442,V2CuBr,0.514859423749999,0.968199435,0.0,True,FM,1.4110302,225
mp-2221507,V2CuS4,-1.053339290714285,0.068357790714289,0.06869999999999901,True,FM,6.0024676,216
mp-972205,V2MoOs,-0.37199957250000104,0.0,0.0,False,NM,0.0,225
mp-972204,V2MoRu,-0.30231118375000304,0.0,0.0,False,NM,2.1e-06,225
mp-972236,V2MoW,-0.08955719000000001,0.0,0.0,False,NM,1.0800000000000002e-05,225
mp-1067900,V2NiSb,0.060889666535715,0.312869289285714,0.0,True,FiM,0.844380999999999,216
mp-971737,V2OsRu,-0.32767246375000103,0.004115578125002,0.0,True,FiM,1.515507599999999,225
mp-1187694,V2OsW,-0.301050762499997,0.0,0.0,False,NM,7.299999999999999e-06,225
mp-979259,V2ReMo,-0.32748511812500003,0.0,0.0,False,NM,3.54e-05,225
mp-865497,V2ReOs,-0.39830620812500606,0.0,0.0,False,NM,0.0139562,225
mp-981365,V2ReRu,-0.363411096875001,0.0,0.0,True,FiM,0.6720389,225
mp-981377,V2ReTc,-0.44065592062499803,0.0,0.0,False,NM,1e-05,225
mp-971754,V2ReW,-0.28961704312499803,0.0,0.0,False,NM,5e-07,225
mp-865499,V2TcOs,-0.42332928749999904,0.0,0.0,False,NM,0.0013563,225
mp-865501,V2TcRu,-0.37694657875000104,0.0,0.0,False,NM,0.002186999999999,225
mvc-14772,V2ZnS4,-1.123817316428571,0.11596530142856801,0.0,True,FM,3.7044888,216
mp-1193521,V3(Co10B3)2,-0.255462827758624,0.002286787413788,0.0,True,FiM,12.9920317,225
mp-1192799,V3(Ni10B3)2,-0.308868395344826,0.0,0.0,True,FM,1.3237406,225
mp-1187695,V3Cr,0.045187074999999,0.045187074999999,0.0,False,NM,0.0005041,225
mp-979283,V3Cu,0.158531359999999,0.158531359999999,0.0,False,NM,0.0034854,225
mp-1187697,V3Fe,-0.14539534,0.025741546249999,0.0,False,NM,0.0053904,225
mp-972071,V3Mo,-0.058626447500000005,0.0,0.0,False,NM,0.0009075999999990001,225
mp-866121,V3Os,-0.41887903000000204,0.0,0.0,False,NM,4.7e-06,225
mp-865385,V3Re,-0.308773028124999,0.0,0.0,False,NM,0.004233199999999,225
mp-865382,V3Ru,-0.316691726250002,0.0,0.0,False,NM,3.4500000000000005e-05,225
mp-4474,V4GaS8,-1.22433745980769,0.0,0.0,True,FM,5.0000001,216
mp-21504,V4GaSe8,-0.9126503401923091,0.0,0.0,True,FM,5.0002083,216
mp-8688,V4GeS8,-1.143607846538469,0.017355163413453,0.0,True,FM,3.9998034000000002,216
mp-8689,V4GeSe8,-0.9452497949038521,0.004304025384622,0.0,True,FM,7.4891566,216
mp-636953,V6Si7Ni16,-0.45650533379310804,0.012681357327585002,0.0,True,FM,2.3888361,225
mp-1205508,VAg3F6,-1.823076867299982,0.195413713000005,0.0,True,FM,1.856674899999999,225
mp-1100404,VAsRu,-0.167685217032522,0.270277235833329,0.0,True,FM,0.070375899999999,216
mp-1282,VC,-0.494289976736112,0.08810940243055501,0.0,False,NM,0.0008286999999990001,225
mp-865465,VCo2Ge,-0.23271246125000103,0.0041435788194420006,0.0,True,FM,2.999842499999999,225
mp-20586,VCo2Si,-0.38121340276041504,0.027069569739582,0.0,True,FM,2.9867764,225
mp-21469,VCo2Sn,-0.07959901875,0.054241908749999006,0.0,True,FM,2.9955833,225
mp-4076,VCoSb,-0.189397489999999,0.0,0.0,True,FiM,1.0003715,216
mp-1018119,VCoSn,0.46505134166666506,0.59235368236111,0.0,False,NM,0.0021257,216
mp-1008631,VCoTe,-0.153596478888889,0.24358800820370402,0.0,True,FM,1.9978259,216
mp-1187696,VCr3,0.13437065250000102,0.13437065250000102,0.0,False,NM,0.0009714,225
mp-979910,VCuRh2,-0.32207532249999804,0.0,0.0,False,NM,1.55e-05,225
mp-4595,VFe2Si,-0.46254781000000006,0.0,0.0,True,FiM,0.8869566,225
mp-636359,VFe2Sn,0.0027126587500010003,0.104296474218751,0.0,True,FiM,0.9118522,225
mp-866134,VFe3,-0.12830672750000002,0.0,0.0,True,FiM,5.4913443,225
mp-1066006,VFeCoAs,-0.090631141875,0.22136983812499902,0.0,True,FM,2.9981523,216
mp-1063914,VFeCoGe,-0.251280766249999,0.0,0.0,True,FM,1.9879805,216
mp-1066862,VFeCoSb,-0.06389359749999901,0.162954153240741,0.0,True,FM,3.0051367,216
mp-1066609,VFeCoSi,-0.448134604999999,0.002104161715688,0.0,True,FM,1.9745734,216
mp-980749,VFeRu2,-0.106915669999999,0.014310354166662001,0.0,True,FM,4.6778888,225
mp-10756,VFeSb,0.16883614666666702,0.444055243333332,0.0,True,FiM,0.5286293,216
mp-567636,VFeSb,-0.275219096666666,0.0,0.3487,False,NM,0.0,216
mp-961658,VFeSe,-0.313655224114583,0.31180477083332603,0.0,True,FiM,0.9830704,216
mp-961656,VFeTe,-0.21830708888888803,0.16760904172222302,0.0,True,FiM,0.9946684,216
mp-22790,VGaCo2,-0.327270957499999,0.0,0.0,True,FM,1.999157299999999,225
mp-21883,VGaFe2,-0.298421076874999,0.0,0.0,False,NM,0.0,225
mp-1066581,VGaFeCo,-0.271086609375,0.029271376249999002,0.0,True,FiM,0.9927187,216
mp-961690,VGaNi,0.274683158300222,0.6008006849999991,0.0,False,NM,0.0006376999999990001,216
mp-30658,VGaNi2,-0.283245548918014,0.022365973101852003,0.0,False,NM,7.890000000000003e-05,225
mp-1187713,VGaOs2,-0.337197567499998,0.0,0.0,False,NM,2.34e-05,225
mp-961688,VGaPt,-0.12463609916666601,0.39998383333333404,0.0,False,NM,0.0058411,216
mp-865586,VGaRu2,-0.5506506,0.0,0.0,False,NM,0.0,225
mp-865471,VGaTc2,-0.30492847249999805,0.0,0.0,False,NM,0.0006420999999990001,225
mp-961674,VGePt,-0.12919433166666602,0.32702856833333205,0.0,True,FM,0.4287977,216
mp-1100423,VGeRh,-0.076892295,0.37190550166666403,0.0,False,NM,2.1200000000000004e-05,216
mp-865585,VGeRu2,-0.36422858874999803,0.0,0.0,True,FiM,1.008634,225
mp-1002114,VH,-0.18546599437500003,0.013288825,0.0,False,NM,1.8500000000000002e-05,225
mp-24728,VH2,-0.226861982499999,0.0,0.0,False,NM,3.0400000000000004e-05,225
mp-961717,VInPt,0.131659474444444,0.596662853333333,0.0,False,NM,0.001256599999999,216
mp-1001826,VN,-1.027275664374999,0.32525225500000005,0.0,True,FM,0.6246305,216
mp-925,VN,-1.162422889374999,0.190105029999999,0.0,False,NM,0.005865299999999,225
mp-20864,VNi2Sn,-0.11478652624999901,0.11414399548610801,0.0,True,FM,0.3773979,225
mp-505599,VNiSb,-0.12468442230952301,0.128043692857144,0.0,True,FM,2.0001096,216
mp-19184,VO,-2.09028776,0.021835317708333003,0.9700999999999991,True,FM,5.9333946,225
mp-631436,VOsCl,0.579969546944454,1.496778129444443,0.0,True,FiM,0.0330724,216
mp-1100417,VSbRh,-0.283458533055555,0.161332801388887,0.0,True,FM,0.9988245,216
mp-31455,VSbRu,-0.21259356916666103,0.08860779833333801,0.21600000000000003,False,NM,2.13e-05,216
mp-865506,VSiOs2,-0.43069470125000403,0.0,0.0,True,FiM,1.0001561,225
mp-961710,VSiPt,-0.43040730333333305,0.18691893757576,0.0,True,FM,0.9975428,216
mp-1100414,VSiRh,-0.5962275938450401,0.123822129954959,0.24910000000000002,False,NM,0.0014364999999990002,216
mp-865507,VSiRu2,-0.6351141462500001,0.0,0.0,True,FiM,0.9991827,225
mp-865472,VSiTc2,-0.5831301412499991,0.0,0.0,False,NM,4.05e-05,225
mp-961664,VSnPd,-0.047391654015148006,0.28868100083333503,0.0,True,FM,1.0014885,216
mp-961716,VSnPt,-0.29587866833333204,0.173358471666667,0.0,True,FM,0.9986645999999991,216
mp-1100421,VSnRh,-0.27645372166666704,0.10759867166666501,0.394499999999999,False,NM,3.7300000000000005e-05,216
mp-570826,VSnRh2,-0.324240503749998,0.10029042562500001,0.0,True,FM,2.7633731999999993,225
mp-1187738,VSnRu2,-0.263807669999998,0.0,0.0,True,FiM,1.0061602,225
mp-865482,VTc2Ge,-0.30462335125,0.0,0.0,False,NM,4.3400000000000005e-05,225
mp-1100422,VTeRu,-0.11468908555555501,0.32680147416666705,0.0,True,FiM,1.0000303,216
mp-1187702,VW3,-0.078156587499996,0.0,0.0,False,NM,1.6100000000000002e-05,225
mp-1187698,VZnCo2,-0.113323123750001,0.0,0.0,True,FiM,1.0715887,225
mp-865487,VZnRh2,-0.47216293625000105,0.0,0.0,True,FM,0.9556583,225
mp-865486,VZnRu2,-0.219651397499998,0.0,0.0,False,NM,0.0002762,225
mp-8641,W,0.47142784000000404,0.47142784000000404,0.0,False,NM,3e-07,225
mp-1205830,W(Br3N)2,0.34682344888888805,1.073665122222221,0.873,True,FM,5.9998202,225
mp-1205769,W(NCl3)2,0.41492775277777705,1.15100242222222,0.0,True,FM,6.0000862,225
mp-1207764,W(NF2)3,-0.4013326565,1.565234879000007,2.6271,True,FM,8.999971,225
mp-1008635,WC,0.5193360850000021,0.6728768300000031,0.0,False,NM,0.0001859,216
mp-13136,WC,0.29411976500000103,0.447660510000002,0.0,False,NM,0.0003188,225
mp-1001828,WN,0.09354010479166401,0.5579608675000001,0.0,False,NM,0.0129959,216
mp-569228,WN,0.22925134979166,0.693672112499996,0.0,False,NM,0.0018729999999990002,225
mp-611517,Xe,0.0057806999999990005,0.0057806999999990005,6.2094,False,NM,0.0,225
mp-9,Y,0.097818,0.097818,0.0,False,NM,0.0001074,225
mp-1205880,Y(NCl2)3,0.734601124249999,1.747232473500001,0.0,True,FM,11.9094086,225
mp-1199736,Y11Cd45,-0.203720788482141,0.0,0.0,False,NM,0.5552634,216
mp-1200338,Y15Ni32,-0.408385639361702,0.0,0.0,False,NM,5.299999999999997e-06,216
mp-1187720,Y2AgAu,-0.6383172437499981,0.011026152499997001,0.0,False,NM,8e-06,225
mp-1187701,Y2AgHg,-0.46326922812500304,0.0,0.0,False,NM,7.32e-05,225