material_id,formula,formation_energy,ehull,band_gap,is_magnetic,magnetic_ordering,total_magnetization,spacegroup
mp-10018,Ac,0.0216390625,0.0216390625,0.0,False,NM,5.8600000000000015e-05,225
mp-861724,Ac2AgIr,-0.413285237500005,0.08711758447916601,0.0,False,NM,1.4200000000000001e-05,225
mp-1183076,Ac2AgPb,-0.48027804250000306,0.0,0.0,False,NM,0.9106046,225
mp-1183068,Ac2CdGa,-0.40283124874999704,0.027136786875004003,0.0,False,NM,4.7300000000000025e-05,225
mp-1183063,Ac2CdGe,-0.46480851375000004,0.05905399421875,0.0,False,NM,4e-06,225
mp-1183086,Ac2CdHg,-0.43368235062500504,0.0,0.0,False,NM,0.6282017,225
mp-862319,Ac2CdSn,-0.5426539487500001,0.07460025710229701,0.0,False,NM,1.94e-05,225
mp-862786,Ac2CuGe,-0.386251328749999,0.0,0.0,False,NM,0.0010705,225
mp-861883,Ac2CuIr,-0.342298746250001,0.0,0.0,False,NM,0.0001685,225
mp-1183120,Ac2CuRu,-0.016838317499995002,0.0030135806250080003,0.0,False,NM,0.00012000000000000002,225
mp-867122,Ac2CuSi,-0.27116471749999904,0.11074834515624501,0.0,False,NM,5.43e-05,225
mp-865470,Ac2CuSn,-0.37453171624999704,0.14242658500000202,0.0,False,NM,0.0144557,225
mp-862683,Ac2GaCu,-0.287378448749997,0.015807976562498,0.0,False,NM,1.0100000000000002e-05,225
mp-1183054,Ac2GaSi,-0.417242170000001,0.221917584374999,0.0,False,NM,7.499999999999998e-06,225
mp-867241,Ac2GePd,-0.665207049999995,0.0,0.0,False,NM,1.1e-06,225
mp-861872,Ac2HgGe,-0.583250138125002,0.0,0.0,False,NM,5e-07,225
mp-1183377,Ac2InGa,-0.5060674862499961,0.0,0.0,False,NM,2.2e-06,225
mp-865951,Ac2IrAu,-0.695376886249995,0.0,0.0,False,NM,8e-07,225
mp-866107,Ac2IrPd,-0.6663974312499971,0.0,0.0,False,NM,5.299999999999997e-06,225
mp-1183093,Ac2IrRh,-0.534733513749998,0.0,0.0,False,NM,0.0008191,225
mp-1183074,Ac2MgGa,-0.228840256874998,0.0,0.0,False,NM,0.00018099999999900002,225
mp-1183078,Ac2MgPb,-0.26746134000000005,0.0,0.0,False,NM,1.22e-05,225
mp-866103,Ac2MgSn,-0.344917513749998,0.0,0.0,False,NM,2.71e-05,225
mp-1183079,Ac2MgTl,-0.19924529333333202,0.0,0.0,False,NM,0.0008679,225
mp-983587,Ac2NiGe,-0.34378095625000704,0.103388868906243,0.0,False,NM,1.04e-05,225
mp-862849,Ac2NiIr,-0.324698736250006,0.0,0.0,False,NM,1.3e-06,225
mp-862698,Ac2SiAu,-0.6415023025000011,0.087466920961524,0.0,False,NM,0.643123999999999,225
mp-983586,Ac2SiHg,-0.461455381875005,0.05358062644442801,0.0,False,NM,6e-06,225
mp-865855,Ac2SiPd,-0.6024802275000021,0.0,0.0,False,NM,1.5e-06,225
mp-864795,Ac2SnHg,-0.645805788125002,0.037804611590921,0.0,False,NM,3.4e-05,225
mp-1183072,Ac2TlCd,-0.40701238124999806,0.0,0.0,False,NM,0.9829102,225
mp-1183073,Ac2TlIn,-0.513242463749996,0.0,0.0,False,NM,1.3900000000000002e-05,225
mp-1183070,Ac2TlSn,-0.570140636250002,0.0,0.0,False,NM,1.0300000000000001e-05,225
mp-1183077,Ac2YbMg,0.024890391249996,0.06904487218749701,0.0,False,NM,1.3700000000000003e-05,225
mp-1183066,Ac2ZnAu,-0.542450432499997,0.008908270597764001,0.0,False,NM,1.4e-06,225
mp-865535,Ac2ZnGa,-0.37824771749999503,0.004478638281256,0.0,False,NM,0.0004701,225
mp-866018,Ac2ZnGe,-0.457048125,0.0,0.0,False,NM,4.13e-05,225
mp-1183067,Ac2ZnHg,-0.384465556874999,0.0,0.0,False,NM,0.007783999999999001,225
mp-1183106,Ac2ZnIn,-0.385861482499997,0.0,0.0,False,NM,0.00202,225
mp-865398,Ac2ZnIr,-0.41411323499999503,0.029086866796873,0.0,False,NM,4e-07,225
mp-866289,Ac2ZnSi,-0.344163451250004,0.11105360453124201,0.0,False,NM,4e-06,225
mp-1183061,Ac2ZnSn,-0.49182156749999706,0.104676664218757,0.0,False,NM,3.5e-06,225
mp-1183065,AcAg2Pb,-0.31133219437500503,0.0,0.0,False,NM,2.4e-06,225
mp-862890,AcAg2Sn,-0.356571924374996,0.044957207812501,0.0,False,NM,1e-06,225
mp-862972,AcAgAu2,-0.602281895625004,0.023172729999998,0.0,False,NM,3.6e-06,225
mp-862873,AcAgHg2,-0.39835183112494804,0.016145468749996002,0.0,False,NM,0.0013731,225
mp-867311,AcAgTe2,-0.996231785625006,0.253250824062497,0.07939999999999901,False,NM,0.0,225
mp-866016,AcBiAu2,-0.703839425624998,0.09309223062499601,0.0,False,NM,2e-07,225
mp-867338,AcCdAg2,-0.21414207437499702,0.050266774166651006,0.0,False,NM,2.1700000000000002e-05,225
mp-1183071,AcCdAu2,-0.665137496874997,0.014088140833365001,0.0,False,NM,0.000114999999999,225
mp-864644,AcCdHg2,-0.46622083812499604,0.0,0.0,False,NM,6.7e-06,225
mp-861880,AcCdRh2,-0.35402117937499605,0.0,0.0,False,NM,3.6e-05,225
mp-1183117,AcCeMg2,0.047029431875000006,0.08292454562499901,0.0,True,FM,1.1638356,225
mp-1006278,AcEuAu2,-0.779867236875,0.0,0.0,True,FM,7.4132046,225
mp-1183268,AcEuMg2,-0.054028739374999,0.010390521250000001,0.0,True,FM,7.5289434,225
mp-1183124,AcEuZn2,-0.261695901874999,0.0,0.0,True,FM,7.0232003,225
mp-977360,AcF3,-4.463333296875,0.0046541725,7.4101,False,NM,0.090988699999999,225
mp-861884,AcGaTe2,-1.071641271875002,0.23712917770833203,0.49099999999999905,False,NM,0.0,225
mp-24147,AcH2,-0.6843335983333341,0.0,0.0,False,NM,1.45e-05,225
mp-861605,AcH3,-0.671802030937499,0.0,0.640699999999999,False,NM,0.0,225
mp-861966,AcHgAu2,-0.657633783749999,0.015640561250009,0.0,False,NM,1.6e-06,225
mp-1183060,AcHgRh2,-0.32168960375000205,0.0,0.0,False,NM,3.1e-06,225
mp-1183055,AcHgTe2,-0.9881945362500061,0.26128807343749805,0.0,False,NM,2.5800000000000004e-05,225
mp-1183121,AcInAg2,-0.32719432937499704,0.019408126874985002,0.0,False,NM,3.6e-06,225
mp-862860,AcInAu2,-0.712694174374995,0.031915724351819004,0.0,False,NM,1.8500000000000002e-05,225
mp-867321,AcInHg2,-0.510612275624993,0.0,0.0,False,NM,1e-07,225
mp-861460,AcInTe2,-1.165022114374998,0.148074160729173,0.3799,False,NM,0.0,225
mp-1183118,AcLaCd2,-0.274911696875,0.0,0.0,False,NM,0.7053009,225
mp-1183101,AcLaMg2,-0.06782922937500101,0.012519636249998,0.0,False,NM,0.0022011,225
mp-984785,AcMg3,-0.031547879375001,0.010295386249998002,0.0,False,NM,1.3e-06,225
mp-865979,AcMgCd2,-0.238415764375,0.0,0.0,False,NM,3.6e-06,225
mp-866225,AcMgHg2,-0.421982165625006,0.0,0.0,False,NM,1.2e-06,225
mp-861735,AcMgTl2,-0.242557518541673,0.0,0.0,False,NM,4e-07,225
mp-1183182,AcMgZn2,-0.23583242437499802,0.0,0.0,False,NM,1.6e-06,225
mp-1183255,AcNb3,0.5851438668750001,0.5851438668750001,0.0,False,NM,0.0591021,225
mp-1183179,AcNdMg2,-0.055583684999999,0.021256512499997,0.0,False,NM,0.17784000000000003,225
mp-36526,AcOF,-4.159415700833336,0.0,4.256600000000001,False,NM,0.0,216
mp-867422,AcPbAu2,-0.6827262418750021,0.0,0.0,False,NM,1.65e-05,225
mp-1183181,AcPrMg2,-0.057254358541666,0.017942212499997,0.0,False,NM,1.54e-05,225
mp-1183220,AcRh2Pb,-0.346064169374997,0.0,0.0,False,NM,0.3409912,225
mp-862894,AcSbAu2,-0.719283556874998,0.15957276125000402,0.0,False,NM,3e-07,225
mp-865957,AcSnAu2,-0.7001559068750041,0.006366787812510001,0.0,False,NM,8e-07,225
mp-1183197,AcSnHg2,-0.48238412562499605,0.009158627638903,0.0,False,NM,1e-07,225
mp-1183243,AcSnPd2,-0.652294486875,0.13793988534884202,0.0,False,NM,2.29e-05,225
mp-865958,AcTlAg2,-0.236608026875003,0.0,0.0,False,NM,3e-07,225
mp-865952,AcTlAu2,-0.6485188643749991,0.0,0.0,False,NM,5.5700000000000005e-05,225
mp-984551,AcTlHg2,-0.453474278124999,0.0,0.0,False,NM,4.7e-06,225
mp-1183199,AcTlRh2,-0.345513796874996,0.0,0.0,False,NM,5.18e-05,225
mp-865028,AcTlTe2,-1.251402644791669,0.0,0.6253000000000001,False,NM,0.0,225
mp-1183236,AcYb3,0.09731830187499901,0.09731830187499901,0.0,False,NM,3.9e-06,225
mp-1183196,AcYbAg2,-0.232558955625002,0.08730051250000001,0.0,False,NM,1e-07,225
mp-1183185,AcYbAu2,-0.8039132281249971,0.11341952541663801,0.0,False,NM,2.499999999999999e-06,225
mp-979962,AcYbCd2,-0.287293888124999,0.048577086562495,0.0,False,NM,7e-07,225
mp-979981,AcYbGa2,-0.5005962431250021,0.066072811249995,0.0,False,NM,0.0,225
mp-866203,AcYbHg2,-0.485260694374999,0.0,0.0,False,NM,2e-07,225
mp-979950,AcYbMg2,-0.042261125624996,0.037518067499998004,0.0,False,NM,8e-07,225
mp-980005,AcYbRh2,-0.6750111106249931,0.0,0.0,False,NM,0.0277619,225
mp-1183192,AcYbTl2,-0.378423713124995,0.0,0.0,False,NM,3.1e-06,225
mp-865953,AcYbZn2,-0.24207845062499803,0.094026371874999,0.0,False,NM,0.022408499999999002,225
mp-1183174,AcZn2Cd,-0.23116120687500002,0.11425595874999601,0.0,False,NM,1.5e-06,225
mp-1183190,AcZn2In,-0.41620914276042204,0.024936667083331,0.0,False,NM,0.0004228,225
mp-861734,AcZnAu2,-0.544362240624998,0.11837836576921001,0.0,False,NM,4.33e-05,225
mp-124,Ag,0.0021267149999990003,0.0021267149999990003,0.0,False,NM,9e-07,225
mp-631581,Ag2BBr,0.968938673125001,1.298749192291667,0.0,False,NM,0.0067894,225
mp-1229090,Ag2S,-0.041446694270833,0.076927171666667,0.0,False,NM,3.52e-05,225
mp-1229100,Ag2Se,-0.10799439052083401,0.025343620000001003,0.0908,False,NM,0.0003142,225
mp-1120715,Ag3BiBr6,-0.49209170049999906,0.37268627349999905,0.0,False,NM,0.004148499999999,225
mp-985283,Ag3Ge,0.10019832625000101,0.10019832625000101,0.0,False,NM,0.0002327,225
mp-1183156,Ag3Rh,0.22892486250000102,0.22892486250000102,0.0,False,NM,0.0027619,225
mp-1183177,Ag3W,0.867660342500002,0.867660342500002,0.0,True,FM,0.318831,225
mp-1229225,Ag5BS4,-0.105090334749998,0.25383371713999603,0.0,False,NM,0.8500819,216
mp-696470,Ag7NO6,-0.15309539119047502,0.292906212142855,0.0,False,NM,0.006916999999999,216
mp-690667,Ag7NO8,0.457978192708334,0.9511527818749991,0.0,True,FM,12.0000003,225
mp-28963,Ag8S,0.229205100798607,0.268663056111108,0.0,False,NM,0.00039969999999900005,216
mp-37153,AgAsF6,-2.201692029895833,0.0,1.6805999999999992,False,NM,0.0,225
mp-631567,AgAsRu2,0.49340496645833504,0.664681081458333,0.0,False,NM,0.007090000000000001,216
mp-1183166,AgBiPd2,-0.188207855000001,0.014839621388887001,0.0,False,NM,1.5e-06,225
mp-23231,AgBr,-0.6596210383333321,0.0,0.730399999999999,False,NM,0.0,225
mp-866291,AgBr,-0.6291156683333321,0.030505370000000004,1.1708,False,NM,0.0,216
mp-1008653,AgC,2.236464982916667,2.236464982916667,0.0,False,NM,0.000321799999999,225
mp-1008912,AgC,2.258682377916667,2.258682377916667,0.0,False,NM,8.820000000000004e-05,216
mp-22922,AgCl,-0.568439933749999,0.0,0.9522,False,NM,0.0,225
mp-551758,AgClO4,-0.29747421361111104,0.11659305666666502,2.3744,False,NM,0.0,216
mp-7592,AgF,-1.122615552499999,0.0,0.0,False,NM,5e-07,225
mp-861501,AgHgPd2,-0.13944391354166502,0.0,0.0,False,NM,1e-07,225
mp-22919,AgI,-0.37274297833333203,0.095016919999999,0.7684000000000001,False,NM,0.0,225
mp-22925,AgI,-0.46535334333333106,0.0024065550000000003,1.3674,False,NM,0.0,216
mp-1009766,AgN,1.549489649166666,1.549489649166666,0.0,False,NM,0.004914099999999,216
mp-1056955,AgN,1.419704264166666,1.419704264166666,0.0,False,NM,0.0011466,225
mp-8222,AgO,-0.133878308333332,0.30869345749999905,0.0,False,NM,0.1343585,216
mp-34418,AgPF6,-2.364613824122023,0.0,3.2361,False,NM,0.0,225
mp-1183167,AgPdAu2,-0.08966036625000101,0.014482154772707001,0.0,False,NM,2.899999999999999e-06,225
mp-379,AgSe,-0.09097982345052101,0.020151804414062002,0.0,False,NM,2.2200000000000004e-05,216
mp-134,Al,0.0,0.0,0.0,False,NM,0.0,225
mp-3861,Al(MoS2)4,-0.9366198861410271,0.027628997820514003,0.0,True,FM,0.9989486,216
mp-1079140,Al(NF2)3,-0.1422048095,1.554771284250003,0.0,True,FM,5.5152765,225
mp-505473,Al(Ni10B7)2,-0.27968089766666504,0.029769778000000004,0.0,False,NM,0.0829882,225
mp-1103718,Al(VS2)4,-1.287627906923076,0.006691719230768001,0.0,True,FM,4.999898799999999,216
mp-1215158,Al12Ga(S2O33)2,-0.649302113463856,1.019987552831324,0.0,True,FM,21.1425209,216
mp-505572,Al13(CrSi)4,-0.13274694530612002,0.006798542448981,0.0,True,FM,1.8924858,216
mp-1198152,Al13Si5ClO38,-2.560690453333333,0.283793238684211,0.0,True,FM,18.0018515,216
mp-706657,Al13Si5H18ClO38,-2.597859470966665,0.027290358533337004,4.3438,False,NM,0.0003496,216
mp-1214897,Al2(Ni7B2)3,-0.347799906034481,0.0,0.0,False,NM,0.00019439999999900002,225
mp-1215020,Al2(Zn13Pd3)3,-0.301756588399999,0.0,0.0,False,NM,8e-07,216
mp-1214905,Al20(CoB2)3,0.111161514779312,0.301031245544828,0.0,True,FM,0.1987805,225
mp-1215027,Al21Pt5,-0.27458006867788504,0.30233520079326903,0.0,False,NM,0.4242028,216
mp-2647,Al2Au,-0.49509397333333505,0.0,0.0,False,NM,4e-07,225
mp-867319,Al2CoIr,-0.835120557500001,0.0,0.0,True,FM,0.4028231,225
mp-984352,Al2CoOs,-0.5402784149999991,0.0,0.0,False,NM,6e-07,225
mp-862695,Al2CoRu,-0.6617507237500011,0.0,0.0,False,NM,3.76e-05,225
mp-985806,Al2Cu,-0.21265698333333302,0.0,0.0,False,NM,0.0,225
mp-1183165,Al2CuPd,-0.5674328900000011,0.028162635124997,0.0,False,NM,4e-07,225
mp-862691,Al2FeCo,-0.46805296249999906,0.0,0.0,False,NM,0.0072225,225
mp-866031,Al2FeIr,-0.6807959575,0.0,0.0,True,FM,0.0687533,225
mp-867330,Al2FeNi,-0.499208689999998,0.024408005000000003,0.0,True,FM,0.2247,225
mp-1183147,Al2FeRh,-0.696539494999998,0.011389959999999,0.0,False,NM,0.0005847,225
mp-866284,Al2IrOs,-0.8285853749999991,0.0,0.0,False,NM,4e-07,225
mp-862694,Al2IrRh,-1.130865957499999,0.0,0.0,False,NM,7.2e-06,225
mp-865989,Al2IrRu,-0.984318068749999,0.0,0.0,False,NM,7e-07,225
mp-1183155,Al2NiOs,-0.607955297499998,0.0,0.0,False,NM,2.6400000000000005e-05,225
mp-867775,Al2NiRu,-0.743546901249999,0.0,0.0,False,NM,1e-07,225
mp-8022,Al2O,-0.14153484833333302,1.762104600555556,0.0,False,NM,0.0033274,225
mp-1183136,Al2OsRh,-0.8597437825,0.0,0.0,False,NM,1.3e-06,225
mp-16522,Al2Pd,-0.644575986666666,0.035680995740738006,0.0,False,NM,0.0,225
mp-862715,Al2PdRu,-0.8579669187500011,0.0,0.0,False,NM,1.5e-06,225
mp-1502,Al2Pt,-0.989689963333328,0.0,0.0,False,NM,4e-07,225
mp-867125,Al2RuPt,-0.9900710087499961,0.0,0.0,False,NM,1e-07,225
mp-867326,Al2RuRh,-1.008399888749998,0.0,0.0,False,NM,1.1e-06,225
mp-1206714,Al2Sn,0.31592689833333504,0.31592689833333404,0.0,False,NM,0.0002984,225
mp-1183135,Al2TcPd,-0.688403215000001,0.015259647130537,0.0,False,NM,6.099999999999997e-06,225
mp-505537,Al3(Co10B3)2,-0.23253419568965603,0.005708143620688001,0.0,True,FM,17.6634624,225
mp-505472,Al3(Ni10B3)2,-0.402885581896529,0.0,0.0,False,NM,1e-07,225
mp-1183138,Al3H,0.38853222406249904,0.413076251666666,0.0,False,NM,0.0113881,225
mp-1229052,Al41V4,-0.09491059866666701,0.027362764888888003,0.0,False,NM,2e-07,216
mp-1228748,Al4CrS8,-1.111500045384614,0.13411958769231,0.0,True,FM,1.9993948,216
mp-29225,Al4Cu2O7,-2.388443480384614,0.417229591153827,0.0,True,FM,0.1415544,216
mp-1228170,Al5AgS8,-1.111908254583328,0.029918490595239003,1.5406,False,NM,0.0004913,216
mp-35267,Al5CuS8,-1.167115974464285,0.0,1.4217,False,NM,0.0,216
mp-37405,Al5CuSe8,-0.9072566873214271,0.029427036785692,0.504599999999999,False,NM,0.0,216
mp-1228138,Al5O8,-3.153414269999999,0.14134631461538502,0.0,True,FM,0.999822,216
mp-1228158,Al5S8,-1.109359496346152,0.08002148796875001,0.0,False,NM,0.0085645,216
mp-1228165,Al5Se8,-0.9269002710877421,0.043122360102163006,0.0,False,NM,0.2957126,216
mp-1205591,AlAg3F6,-2.134454542500006,0.08542255150000201,0.268099999999999,False,NM,6.690000000000001e-05,225
mp-631568,AlAgB,0.8454208495333331,0.9112557830999991,0.0,False,NM,0.0006854,216
mp-2172,AlAs,-0.627042776249999,0.0,1.503699999999999,False,NM,0.0,216
mp-988940,AlAs,-0.350628891249999,0.276413885,0.0,False,NM,0.0002498,225
mp-631514,AlB2Pb,1.762802246549995,1.813238293399997,0.0,False,NM,0.024361999999999003,216
mp-1018132,AlBi,0.090943279999997,0.090943279999997,0.0,False,NM,0.0,216
mp-1214804,AlCo2Ni,-0.22478804950000003,0.117662525499998,0.0,True,FM,2.472558,225
mp-1228999,AlCr4AgS8,-1.011209352261903,0.0,0.0,True,FM,11.9984871,216
mp-1228960,AlCr4CuS8,-1.048169373571428,0.0,0.0,True,FM,12.0005221,216
mp-1229004,AlCr4CuSe8,-0.841807363482142,0.0,0.0,True,FiM,11.997757,216
mp-10883,AlCrCo2,-0.22062925874999803,0.057598806249999,0.0,True,FM,2.9997775,225
mp-16494,AlCrCu2,-0.015341943166667002,0.160422962083332,0.0,True,FM,2.9512088,225
mp-16495,AlCrFe2,-0.164215934999999,0.016952406249998,0.0,True,FiM,0.998752499999999,225
mp-10885,AlCrNi2,-0.25891897624999904,0.12931124062500002,0.0,True,FM,3.2114179,225
mp-862781,AlCrRu2,-0.3686861925,0.0,0.0,True,FiM,1.1216391,225
mp-12777,AlCu3,-0.180917327499999,0.0210512025,0.0,False,NM,0.0,225
mp-867306,AlCuAu2,-0.25772352000000004,0.0,0.0,False,NM,0.0,225
mp-866296,AlCuPd2,-0.6301237899999991,0.0,0.0,False,NM,0.0,225
mp-1183191,AlCuRh2,-0.574165619999998,0.037981738333325,0.0,False,NM,2.7700000000000002e-05,225
mp-1067509,AlCuS2,-0.071534237656248,0.891598616249999,0.0,False,NM,0.00046029999999900006,225
mp-1067556,AlCuSe2,0.023868365468764002,0.7802025587499931,0.0,False,NM,0.0001104,225
mp-1066394,AlCuTe2,0.20582470499999703,0.6310189112499991,0.0,False,NM,1.8900000000000002e-05,225
mp-1183187,AlFe2Ge,-0.211584308749999,0.012931964166666001,0.0,True,FM,0.3686639,225
mp-672259,AlFe2Mo,-0.1760317375,0.037930024583335005,0.0,True,FiM,0.87538,225
mp-31186,AlFe2Ni,-0.09435004249999901,0.23506995500000002,0.0,True,FM,4.2439238,225
mp-867878,AlFe2Si,-0.44477182749999905,0.0,0.0,True,FM,0.432166999999999,225
mp-862288,AlFe2W,-0.20830292249999902,0.0,0.0,True,FiM,0.954311599999999,225
mp-2018,AlFe3,-0.163539367499999,0.035353807499999,0.0,True,FM,7.3221923,225
mp-10884,AlFeCo2,-0.35879662500000004,0.0,0.0,True,FM,4.9954475,225
mp-1183163,AlFeIr2,-0.485886752499999,0.017963469166669,0.0,True,FM,4.563966,225
mp-861953,AlFeRh2,-0.595923447499998,0.0,0.0,True,FM,4.5393375,225
mp-1183148,AlGaCo2,-0.37386411499999905,0.003663324999999,0.0,False,NM,2.2e-06,225
mp-1183158,AlGaIr2,-0.7508680024999991,0.012601042500001,0.0,False,NM,4.6500000000000005e-05,225
mp-1183173,AlGaNi2,-0.5220558375000001,0.019714050952382,0.0,False,NM,1.23e-05,225
mp-1183218,AlGaRu2,-0.5257573575000011,0.004790064375001,0.0,False,NM,6.71e-05,225
mp-867904,AlGeRu2,-0.517801542499999,0.0,0.0,False,NM,3.8e-05,225
mp-631543,AlInB,1.047582126033333,1.081206157266667,0.0,False,NM,0.0036726999999990005,216
mp-1330,AlN,-1.507669534374999,0.1720026375,4.417499999999999,False,NM,0.00051,225
mp-1700,AlN,-1.658923009375,0.020749162499999002,3.3056,False,NM,0.0,216
mp-672232,AlNi3,-0.35436974749999905,0.072050029999999,0.0,False,NM,7e-07,225
mp-1228803,AlNiGe,-0.42597598833333206,0.030624778333335004,0.0,False,NM,0.0004503,216
mp-8023,AlO,-1.5521156375,1.303343535833334,0.0,False,NM,0.0029123,225
mp-1550,AlP,-0.737248783988095,0.0,1.6294,False,NM,0.0,216
mp-37990,AlPO4,-3.104332613440474,0.022839589555556,5.5123,False,NM,0.0,216
mp-2624,AlSb,-0.252975485,0.0,1.2255,False,NM,0.0,216
mp-862778,AlSiRu2,-0.7554451362499991,0.0,0.0,False,NM,1e-06,225
mp-631582,AlTc2Pb,0.50111172,0.851821205,0.0,False,NM,0.007157399999999,216
mp-4955,AlVCo2,-0.44793970249999904,0.0,0.0,True,FM,2.0007333,225
mp-1228804,AlVFe2,-0.13865449499999902,0.29010812500000005,0.0,True,FiM,3.6584464,216
mp-5778,AlVFe2,-0.42876261999999904,0.0,0.0,False,NM,0.0,225
mp-1008530,AlVFeCo,-0.394214064999999,0.029393292499996,0.0,True,FM,0.9839994,216
mp-961650,AlVNi,0.356573097456141,0.814568203333335,0.0,False,NM,0.005224599999999,216
mp-10899,AlVNi2,-0.39258929145833504,0.046284947395832006,0.0,False,NM,0.0002926,225
mp-862700,AlVOs2,-0.60377356,0.0,0.0,False,NM,1e-07,225
mp-961668,AlVPt,-0.13764821000000002,0.6046053022222261,0.0,False,NM,0.0002544,216
mp-866001,AlVRu2,-0.730717902500003,0.0,0.0,False,NM,0.0,225
mp-1183151,AlZnCu2,-0.15422425249999902,0.015745643161428,0.0,False,NM,5.7600000000000004e-05,225
mp-862705,AlZnIr2,-0.693766981249999,0.0,0.0,False,NM,1e-07,225
mp-866033,AlZnRh2,-0.8575285962499991,0.0,0.0,False,NM,7e-07,225
mp-23155,Ar,0.0,0.0,8.5132,False,NM,0.0,225
mp-1096826,As,0.558594425,0.558594425,0.0,False,NM,0.0002499,225
mp-1183184,As3W,0.606574684062497,0.664555852499997,0.0,False,NM,0.005255399999999,225
mp-2302,AsRh2,-0.5298349875,0.0,0.0,False,NM,1e-07,225
mp-631257,AsSeBr,0.226682451718749,0.8447942075000011,0.0,False,NM,0.0011602,216
mp-81,Au,0.0,0.0,0.0,False,NM,0.0,225
mp-1008558,AuN,1.540296207499999,1.540296207499999,0.0,False,NM,0.0033353999999990004,216
mp-1008610,AuN,1.5102573925000011,1.5102573925000011,0.0,False,NM,0.0007078999999990001,225
mp-1202723,B,0.32143077000000003,0.32143077000000003,0.0,False,NM,0.0026779,225
mp-1001602,B12W,0.208346707756412,0.28236336602564105,0.0,False,NM,6.170000000000001e-05,225
mp-631586,B2IrCl,1.890622136180557,2.345699615972222,0.0,False,NM,0.0589009,225
mp-10044,BAs,-0.041637114791665,0.080389767499999,1.203699999999999,False,NM,0.0015859,216
mp-1183146,BAu3,0.876944082708334,0.876944082708334,0.0,False,NM,0.000255299999999,225