material_id,formula,formation_energy,ehull,band_gap,is_magnetic_x,magnetic_ordering,total_magnetization_x,spacegroup,heusler_type,is_magnetic_y,total_magnetization_y
mp-866013,DyTmMg2,-0.047000915416666,0.002393127499999,0.0,False,NM,4.8e-06,225,full,False,4.8e-06
mp-1184158,DyTmRh2,-0.917271470416666,0.01080523,0.0,False,NM,0.0020141,225,full,False,0.0020141
mp-1184074,DyTmRu2,-0.366935287916665,0.003211937000001,0.0,False,NM,7.33e-05,225,full,False,7.33e-05
mp-971924,DyYAg2,-0.313097208749998,0.0001222675,0.0,False,NM,3.77e-05,225,full,False,3.77e-05
mp-971922,DyYAl2,-0.438464506249999,0.042303950535718,0.0,False,NM,1.899999999999999e-06,225,full,False,1.899999999999999e-06
mp-979417,DyYCd2,-0.299809932916665,0.005004622499999,0.0,False,NM,1e-05,225,full,False,1e-05
mp-979946,DyYCu2,-0.23897115875,0.016916380000001,0.0,False,NM,1.63e-05,225,full,False,1.63e-05
mp-971799,DyYHg2,-0.587166917500006,0.0,0.0,False,NM,1.02e-05,225,full,False,1.02e-05
mp-1184424,DyYIn2,-0.596735653749998,0.006658510833339,0.0,False,NM,1.3900000000000002e-05,225,full,False,1.3900000000000002e-05
mp-980387,DyYIr2,-0.8049817729166661,0.001724832767855,0.0,True,FM,0.2153762,225,full,True,0.2153762
mp-1184136,DyYMg2,-0.064177132916666,0.002449902499999,0.0,False,NM,1.9200000000000003e-05,225,full,False,1.9200000000000003e-05
mp-979917,DyYRh2,-0.8461059754166651,0.0085538775,0.0,False,NM,1.5700000000000002e-05,225,full,False,1.5700000000000002e-05
mp-979434,DyYTl2,-0.453713978749995,0.002646352500001,0.0,False,NM,0.0001747,225,full,False,0.0001747
mp-979712,DyYZn2,-0.380824673750002,0.007523622499999,0.0,False,NM,0.044639599999999,225,full,False,0.044639599999999
mp-865257,DyZnRh2,-0.654219407916663,0.0,0.0,False,NM,2.6e-06,225,full,False,2.6e-06
mp-866009,DyZrRu2,-0.494347470416665,0.001528479296874,0.0,False,NM,4e-07,225,full,False,4e-07
mp-1184110,Er2AgAu,-0.612601145416663,0.007829208750001,0.0,False,NM,5.8600000000000015e-05,225,full,False,5.8600000000000015e-05
mp-1184075,Er2AgHg,-0.407943068541667,0.003646184999999,0.0,False,NM,3.19e-05,225,full,False,3.19e-05
mp-977416,Er2AgIr,-0.6483532254166651,0.018923199999997,0.0,False,NM,0.0031064,225,full,False,0.0031064
mp-1184131,Er2AgOs,-0.319309517916666,0.014056422249999,0.0,False,NM,1.9900000000000003e-05,225,full,False,1.9900000000000003e-05
mp-1184085,Er2AgPt,-0.8117368754166651,0.013385645624998,0.0,False,NM,2.8e-06,225,full,False,2.8e-06
mp-862978,Er2AgRu,-0.393686707916665,0.0,0.0,False,NM,5e-07,225,full,False,5e-07
mp-1184106,Er2AlCd,-0.337334309999998,0.017901855625,0.0,False,NM,0.0001263,225,full,False,0.0001263
mp-1184084,Er2AlZn,-0.419352475416669,0.011803569999997,0.0,False,NM,0.0005676,225,full,False,0.0005676
mp-1184096,Er2CdHg,-0.379241708125001,0.011054659999997,0.0,False,NM,2e-06,225,full,False,2e-06
mp-862981,Er2CdIn,-0.377967229166665,0.0,0.0,False,NM,0.0009771,225,full,False,0.0009771
mp-1184134,Er2CdOs,-0.239608554999997,0.07246449975,0.0,False,NM,8.380000000000003e-05,225,full,False,8.380000000000003e-05
mp-1184125,Er2CoIr,-0.5745190599999991,0.061011356388878,0.0,True,FiM,0.267616099999999,225,full,True,0.267616099999999
mp-1184091,Er2CuAu,-0.573516309999998,0.012932881249998,0.0,False,NM,3e-07,225,full,False,3e-07
mp-1184124,Er2CuIr,-0.644442577499999,0.008417859722218,0.0,False,NM,2.17e-05,225,full,False,2.17e-05
mp-1183450,Ca2GaHg,-0.540176436874999,0.020961306249997,0.0,False,NM,2.899999999999999e-06,225,full,False,2.899999999999999e-06
mp-1183503,Ca2HgBi,-0.8079776801282391,0.020743057708333,0.0,False,NM,0.0312844,225,full,False,0.0312844
mp-1183454,Ca2HgGe,-0.6594672543749981,0.0127704225,0.012799999999999,False,NM,0.0,225,full,False,0.0
mp-866105,Ca2HgPb,-0.5960727531249981,0.0,0.0,False,NM,0.0,225,full,False,0.0
mp-1183598,Ca2InHg,-0.585514224375,0.002421209375,0.0,False,NM,0.0001485,225,full,False,0.0001485
mp-1183460,Ca2InPb,-0.489054936666664,0.014453691874999,0.0,False,NM,5.7e-06,225,full,False,5.7e-06
mp-1183457,Ca2MgCd,-0.189803828749999,0.013824580312499,0.0,False,NM,4e-07,225,full,False,4e-07
mp-867350,Ca2MgIn,-0.297382525416666,0.0,0.0,False,NM,6.7e-06,225,full,False,6.7e-06
mp-861645,Ca2MgTl,-0.278889944583334,0.0,0.0,False,NM,1.1e-06,225,full,False,1.1e-06
mp-1183607,Ca2PbAu,-0.645073704999998,0.0206689,0.0,False,NM,0.0001729,225,full,False,0.0001729
mp-863744,Ca2PdAu,-0.740615747500001,0.013046250833333,0.0,False,NM,0.0011941,225,full,False,0.0011941
mp-1183493,Ca2PdPt,-0.8133838899999971,0.023825183333343,0.0,False,NM,2e-07,225,full,False,2e-07
mp-1183466,Ca2PtAu,-0.906918472499999,0.020134182500001,0.0,False,NM,0.001188799999999,225,full,False,0.001188799999999
mp-861950,Ca2SbAu,-0.9151396175,0.043361344034091,0.1936,False,NM,0.0,225,full,False,0.0
mp-866229,Ca2SnHg,-0.659526856875,0.0,0.1485,False,NM,2e-07,225,full,False,2e-07
mp-867849,Ca2TlCd,-0.398022358333333,0.0,0.0,False,NM,7.8e-06,225,full,False,7.8e-06
mp-1183453,Ca2TlHg,-0.5669576818750031,0.0,0.0,False,NM,2.6400000000000005e-05,225,full,False,2.6400000000000005e-05
mp-1183531,Ca2TlIn,-0.5482594699999971,0.0,0.0,False,NM,1.27e-05,225,full,False,1.27e-05
mp-861604,Ca2TlPb,-0.495178358333334,0.0,0.0,False,NM,4.7600000000000005e-05,225,full,False,4.7600000000000005e-05
mp-1183512,Ca2TlSn,-0.5386192820833361,0.005924823749998,0.0,False,NM,5e-07,225,full,False,5e-07
mp-1183461,Ca2TlZn,-0.343901705833336,0.000333886249999,0.0,False,NM,1.6400000000000002e-05,225,full,False,1.6400000000000002e-05
mp-1183459,Ca2ZnCd,-0.278890027499999,0.01262778625,0.0,False,NM,7.4e-06,225,full,False,7.4e-06
mp-1183463,Ca2ZnGa,-0.358440356874999,0.005286312463234,0.0,False,NM,3.6e-06,225,full,False,3.6e-06
mp-1183464,Ca2ZnHg,-0.392878973124999,0.013920215000001,0.0,False,NM,7e-06,225,full,False,7e-06
mp-1183608,Ca2ZnIn,-0.355894436666665,0.017576287687499,0.0,False,NM,1.0100000000000002e-05,225,full,False,1.0100000000000002e-05
mp-1183470,Ca2ZnPb,-0.447269044999997,0.003764967,0.0,False,NM,1.82e-05,225,full,False,1.82e-05
mp-867854,Ca2ZnRh,-0.288808329999998,0.021175050347222,0.0,False,NM,2.7300000000000003e-05,225,full,False,2.7300000000000003e-05
mp-1183468,Ca2ZnSn,-0.5153830862499991,0.013189052916665,0.0,False,NM,0.0002871,225,full,False,0.0002871
mp-1183474,CaAcAu2,-0.852907361874997,0.0,0.0,False,NM,3e-07,225,full,False,3e-07
mp-1183472,CaAcGa2,-0.493078181875002,0.093226234853947,0.0,False,NM,6.4e-06,225,full,False,6.4e-06
mp-865173,CaAcHg2,-0.612949323125008,0.0,0.0,False,NM,1e-07,225,full,False,1e-07
mp-985450,CaAcIn2,-0.562932201875,0.0,0.0,False,NM,3.1400000000000004e-05,225,full,False,3.1400000000000004e-05
mp-1183488,CaAcMg2,-0.076156435624999,0.0,0.0,False,NM,9.2e-05,225,full,False,9.2e-05
mp-1183483,CaAcRh2,-0.453061799374999,0.0,0.0,False,NM,1.6800000000000002e-05,225,full,False,1.6800000000000002e-05
mp-1183500,CaAcTl2,-0.506917204375,0.0,0.0,False,NM,4e-06,225,full,False,4e-06
mp-864962,CaAcZn2,-0.272621318124999,0.0,0.0,False,NM,4.9000000000000005e-06,225,full,False,4.9000000000000005e-06
mp-865729,CaAg2Sn,-0.341297382083331,0.050234569583333,0.0,False,NM,5.85e-05,225,full,False,5.85e-05
mp-984704,CaAgHg2,-0.346949062500002,0.041343023749995,0.0,False,NM,3.1e-06,225,full,False,3.1e-06
mp-961647,CaAgP,-0.175629057658731,0.6831853155555551,0.0,False,NM,7.740000000000001e-05,216,half,False,7.740000000000001e-05
mp-568398,CaBiAu,-0.8070770083333371,0.0,0.0,False,NM,1.4e-06,216,half,False,1.4e-06
mp-631550,CaBiB,0.849236478055549,1.535715601018513,0.077799999999999,False,NM,0.001768499999999,216,half,False,0.001768499999999
mp-977540,CaBiPd2,-0.59808100375,0.050311544017862,0.0,False,NM,9e-07,225,full,False,9e-07
mp-866010,CaCdAu2,-0.5571728124999971,0.0,0.0,False,NM,4.599999999999997e-06,225,full,False,4.599999999999997e-06
mp-866104,CaCdHg2,-0.359142818750003,0.0,0.0,False,NM,1e-06,225,full,False,1e-06
mp-866279,CaCdPd2,-0.557560404999998,0.0212205509375,0.0,False,NM,0.0003409,225,full,False,0.0003409
mp-962078,CaCdSi,-0.084177969999998,0.255967826111111,0.0,False,NM,0.0009607,216,half,False,0.0009607
mp-1100411,CaCdSn,-0.396879568333332,0.090163692222222,0.0,False,NM,0.0012259,216,half,False,0.0012259
mp-865460,CaCeAg2,-0.19449022833333,0.037822081874999,0.0,True,FM,1.2157879,225,full,True,1.2157879
mp-1183527,CaCeCd2,-0.236066672499998,0.017672027500001,0.0,True,FM,0.953523,225,full,True,0.953523
mp-866040,CaCeHg2,-0.577729531249999,0.0,0.0,True,FM,1.1546414,225,full,True,1.1546414
mp-1183677,CaCeIn2,-0.5731214125,0.0,0.0,True,FM,1.0404651,225,full,True,1.0404651
mp-862907,CaCeMg2,-0.001724969999999,0.086398804999999,0.0,True,FM,1.321109399999999,225,full,True,1.321109399999999
mp-1183507,CaCePd2,-0.6816876420833321,0.038869350694444,0.0,True,FM,0.9174751,225,full,True,0.9174751
mp-1183467,CaCeRh2,-0.580829026874997,0.020275681874998,0.0,False,NM,0.005635999999999,225,full,False,0.005635999999999
mp-1183614,CaCeZn2,-0.22768897,0.007292694749999,0.0,True,FM,1.0248773,225,full,True,1.0248773
mp-866228,CaDyHg2,-0.602105964999999,0.0,0.0,False,NM,8.8e-06,225,full,False,8.8e-06
mp-866216,CaDyRh2,-0.616526022916663,0.0,0.0,False,NM,2.899999999999999e-06,225,full,False,2.899999999999999e-06
mp-1183478,CaDyZn2,-0.294767595416665,0.004477966249998,0.0,False,NM,4.7e-06,225,full,False,4.7e-06
mp-865169,CaErRh2,-0.643581572499999,0.00506521798611,0.0,False,NM,2e-06,225,full,False,2e-06
mp-1183508,CaEuCd2,-0.32192749875,0.005196399999999,0.0,True,FM,7.2695211,225,full,True,7.2695211
mp-1183606,CaEuGa2,-0.498935248750001,0.036497408125001,0.0,True,FM,6.949856299999999,225,full,True,6.949856299999999
mp-1183530,CaEuHg2,-0.601035267500002,0.001617392499994,0.0,True,FM,7.2029574,225,full,True,7.2029574
mp-865553,CaEuIn2,-0.457536944583334,0.004127709374998,0.0,True,FM,6.9975468,225,full,True,6.9975468
mp-1183637,CaEuMg2,-0.036846491249999,0.028545801249998,0.0,True,FM,7.469881,225,full,True,7.469881
mp-1183609,CaEuTl2,-0.5407482587500071,0.0,0.0,True,FM,6.9951085,225,full,True,6.9951085
mp-1183574,CaEuZn2,-0.25548029875,0.0,0.0,True,FM,7.3665275,225,full,True,7.3665275
mp-1183618,CaGdCd2,-0.327400014999998,0.003637195000001,0.0,True,FM,7.3290502,225,full,True,7.3290502
mp-867315,CaGdHg2,-0.572022508750002,0.0,0.0,True,FM,7.2432814,225,full,True,7.2432814
mp-1183613,CaGdPd2,-0.7416662474999991,0.011971799861104,0.0,True,FM,7.2229605,225,full,True,7.2229605
mp-1183601,CaGdRh2,-0.5728695300000021,0.014673115749992,0.0,True,FM,7.1410647,225,full,True,7.1410647
mp-1183638,CaGdZn2,-0.297662474999999,0.009470524749998,0.0,True,FM,7.3759885,225,full,True,7.3759885
mp-1227052,CaHF,-2.426918358749999,0.02062701,4.674,False,NM,0.002610399999999,216,half,False,0.002610399999999
mp-631479,CaHfBe,0.723478678333334,0.815233761333334,0.0,False,NM,0.0003231,216,half,False,0.0003231
mp-631515,CaHfZn,0.920329686666668,1.098533526999999,0.0,False,NM,0.0002626,216,half,False,0.0002626
mp-1183561,CaHoCd2,-0.312960176249995,0.000821037500001,0.0,False,NM,1.6100000000000002e-05,225,full,False,1.6100000000000002e-05
mp-1183554,CaHoHg2,-0.594504837500004,0.0,0.0,False,NM,2.11e-05,225,full,False,2.11e-05
mp-1183569,CaHoPd2,-0.7988026862499921,0.030588318611112,0.0,False,NM,0.0009613,225,full,False,0.0009613
mp-866283,CaHoRh2,-0.627668618749997,0.001346332986112,0.0,False,NM,6e-07,225,full,False,6e-07
mp-1183585,CaHoZn2,-0.291256183749998,0.008395083249997,0.0,False,NM,5.4e-06,225,full,False,5.4e-06
mp-1183617,CaInAg2,-0.312169444999998,0.033023087812502,0.0,False,NM,1.7000000000000003e-05,225,full,False,1.7000000000000003e-05
mp-861960,CaInAu2,-0.6447403674999991,0.035720307740383,0.0,False,NM,1.1e-06,225,full,False,1.1e-06
mp-867201,CaInHg2,-0.427686531250003,0.0046816884375,0.0,False,NM,7e-07,225,full,False,7e-07
mp-1183586,CaInPd2,-0.672011032499998,0.030075027755668,0.0,False,NM,3.299999999999999e-06,225,full,False,3.299999999999999e-06
mp-862795,CaLaAg2,-0.306964508749999,0.0,0.0,False,NM,3.33e-05,225,full,False,3.33e-05
mp-1183579,CaLaAu2,-0.8259485562500021,0.0,0.0,False,NM,9.3e-06,225,full,False,9.3e-06
mp-866000,CaLaCd2,-0.36111094125,0.0,0.0,False,NM,3.71e-05,225,full,False,3.71e-05
mp-862846,CaLaHg2,-0.6360104200000051,0.0,0.0,False,NM,0.000249,225,full,False,0.000249
mp-861643,CaLaMg2,-0.09486094875,0.0,0.0,False,NM,1.77e-05,225,full,False,1.77e-05
mp-862962,CaLaZn2,-0.315703181249999,0.0,0.0,False,NM,0.0007653,225,full,False,0.0007653
mp-1183559,CaLuHg2,-0.563193690416667,0.0072497775,0.0,False,NM,2.34e-05,225,full,False,2.34e-05
mp-1183596,CaLuPd2,-0.811954837083334,0.042178462361107,0.0,False,NM,0.0002259,225,full,False,0.0002259
mp-861869,CaLuRh2,-0.721405350868057,0.017421997986108,0.0,False,NM,0.0009274,225,full,False,0.0009274
mp-1183548,CaMgCd2,-0.234066648749999,0.0,0.0,False,NM,2.6e-06,225,full,False,2.6e-06
mp-867144,CaMgHg2,-0.409551220000002,0.0,0.0,False,NM,5e-07,225,full,False,5e-07
mp-962068,CaMgSn,-0.286866849999999,0.256020864999999,0.0,False,NM,0.0015886,216,half,False,0.0015886
mp-867266,CaMgTl2,-0.266686155416668,0.0,0.0,False,NM,1e-07,225,full,False,1e-07
mp-1183555,CaNdAg2,-0.301223394374996,0.0,0.0,False,NM,3.799999999999998e-06,225,full,False,3.799999999999998e-06
mp-1183564,CaNdAu2,-0.8077484893749981,0.002994118749999,0.0,False,NM,6.4e-06,225,full,False,6.4e-06
mp-867224,CaNdCd2,-0.345094269374999,0.0,0.0,False,NM,2.8e-06,225,full,False,2.8e-06
mp-865955,CaNdHg2,-0.619156613124999,0.0,0.0,False,NM,1.2e-06,225,full,False,1.2e-06
mp-866227,CaNdRh2,-0.510185246874999,0.019301107624996,0.0,False,NM,1e-07,225,full,False,1e-07
mp-866220,CaNdZn2,-0.307927686875,0.0,0.0,False,NM,2.2e-06,225,full,False,2.2e-06
mp-961667,CaNiTe,-0.5062206288888881,0.7333377600000011,0.0,False,NM,3.63e-05,216,half,False,3.63e-05
mp-1183552,CaPmAg2,-0.303594609375,0.0,0.0,False,NM,3.299999999999999e-06,225,full,False,3.299999999999999e-06
mp-862882,CaPmAu2,-0.8781849018749951,0.0,0.0,False,NM,1.2e-06,225,full,False,1.2e-06
mp-862881,CaPmCd2,-0.342690436874997,0.0,0.0,False,NM,4e-07,225,full,False,4e-07
mp-862883,CaPmHg2,-0.621058623125001,0.0,0.0,False,NM,5.2e-06,225,full,False,5.2e-06
mp-1183567,CaPmMg2,-0.080341531874999,0.0,0.0,False,NM,1.4e-06,225,full,False,1.4e-06
mp-862884,CaPmPd2,-0.754423509374998,0.0,0.0,False,NM,2.21e-05,225,full,False,2.21e-05
mp-862886,CaPmPt2,-1.106369869375001,0.0,0.0,False,NM,4.1e-06,225,full,False,4.1e-06
mp-862885,CaPmRh2,-0.556746816874998,0.016451274750004,0.0,False,NM,6e-07,225,full,False,6e-07
mp-862888,CaPmZn2,-0.308236734374999,0.0,0.0,False,NM,2e-07,225,full,False,2e-07
mp-866060,CaPrAg2,-0.306290548749997,0.0,0.0,False,NM,5e-07,225,full,False,5e-07
mp-867257,CaPrCd2,-0.350110032916664,0.0,0.0,False,NM,1.3e-06,225,full,False,1.3e-06
mp-867217,CaPrHg2,-0.6143249616666681,0.0,0.0,False,NM,7.699999999999999e-06,225,full,False,7.699999999999999e-06
mp-1183584,CaPrRh2,-0.481732005416665,0.026719816874996,0.0,False,NM,0.007845399999999,225,full,False,0.007845399999999
mp-866015,CaPrZn2,-0.303852802916666,0.0,0.0,False,NM,1.83e-05,225,full,False,1.83e-05
mp-864998,CaPuRh2,0.166147685312504,0.474443090312504,0.0,True,FM,0.5007515,225,full,True,0.5007515
mp-631420,CaRe2Si,0.8283785837500011,1.079861385,0.0,False,NM,0.0001768,225,full,False,0.0001768
mp-631458,CaReBi,0.6631916624999881,1.265062191944451,0.0,False,NM,0.173445799999999,216,half,False,0.173445799999999
mp-1183547,CaSbPd2,-0.7041708199999991,0.06034308810185,0.0,False,NM,0.0012418,225,full,False,0.0012418
mp-1183560,CaSmAg2,-0.299959087499999,0.004305091249996,0.0,False,NM,7.099999999999996e-06,225,full,False,7.099999999999996e-06
mp-864620,CaSmCd2,-0.338840801249999,0.0,0.0,False,NM,7e-07,225,full,False,7e-07
mp-866014,CaSmHg2,-0.616676951249999,0.0,0.0,False,NM,8.099999999999999e-06,225,full,False,8.099999999999999e-06
mp-1183908,CaSmIn2,-0.559262711874996,0.044574912499999,0.0,False,NM,0.0057965,225,full,False,0.0057965
mp-1183557,CaSmMg2,-0.07418694625,0.000769262499999,0.0,False,NM,8e-07,225,full,False,8e-07
mp-1183576,CaSmPd2,-0.760200355000002,0.022264606666688,0.0,False,NM,3.77e-05,225,full,False,3.77e-05
mp-866280,CaSmRh2,-0.551134911249999,0.005023154374995,0.0,False,NM,1e-07,225,full,False,1e-07
mp-866061,CaSmZn2,-0.30602266375,0.0,0.0,False,NM,2.7e-06,225,full,False,2.7e-06
mp-977359,CaSnAu2,-0.5924160312499981,0.0,0.0,False,NM,4.999999999999999e-06,225,full,False,4.999999999999999e-06
mp-861935,CaSnRh2,-0.551106108749998,0.0,0.0,False,NM,1.3e-05,225,full,False,1.3e-05
mp-631411,CaTa2Tl,0.581623672500001,0.8379493025000001,0.0,False,NM,0.0767886,216,full,False,0.0767886
mp-631395,CaTaTc,0.9948349675555472,1.373335069999996,0.0,False,NM,0.0005163,216,half,False,0.0005163
mp-1183566,CaTbHg2,-0.609332303750001,0.0,0.0,False,NM,4.9000000000000005e-06,225,full,False,4.9000000000000005e-06
mp-1183553,CaTbPd2,-0.7930893362499911,0.023651620277778,0.0,False,NM,0.001895899999999,225,full,False,0.001895899999999
mp-1183546,CaTbRh2,-0.605651189166666,0.0,0.0,False,NM,2.7e-06,225,full,False,2.7e-06
mp-866282,CaThRh2,-0.657040917499998,0.03890505571428,0.0,False,NM,5.31e-05,225,full,False,5.31e-05
mp-984769,CaTl2Cd,-0.215361996666669,0.025357497708332,0.0,False,NM,0.001098899999999,225,full,False,0.001098899999999
mp-984791,CaTmCd2,-0.303749737500002,0.009818232499998,0.0,False,NM,1e-07,225,full,False,1e-07
mp-1183581,CaTmHg2,-0.5804501362500071,0.0,0.0,False,NM,2.05e-05,225,full,False,2.05e-05
mp-1183672,CaTmIn2,-0.539571607500001,0.024152579499997,0.0,False,NM,7e-07,225,full,False,7e-07
mp-1183593,CaTmPd2,-0.8082478820833501,0.036068240277774,0.0,False,NM,0.0012975,225,full,False,0.0012975
mp-866226,CaTmPt2,-1.179210548625,0.025198216458335,0.0,False,NM,0.003402799999999,225,full,False,0.003402799999999
mp-1183550,CaTmRh2,-0.6544295799999981,0.009604605486113,0.0,False,NM,3.1e-06,225,full,False,3.1e-06
mp-1183568,CaTmZn2,-0.287468017500001,0.015602091249999,0.0,False,NM,1.699999999999999e-06,225,full,False,1.699999999999999e-06
mp-1183556,CaYCd2,-0.324767139999998,0.0009386125,0.0,False,NM,7e-07,225,full,False,7e-07
mp-866223,CaYHg2,-0.602788378750002,0.0,0.0,False,NM,0.0,225,full,False,0.0
mp-1183551,CaYPd2,-0.780066180833326,0.021626159027778,0.0,False,NM,0.0017245,225,full,False,0.0017245
mp-1183571,CaYPt2,-1.140012507500003,0.023774027583328,0.0,False,NM,3.799999999999998e-06,225,full,False,3.799999999999998e-06
mp-865002,CaYRh2,-0.5890388174999981,0.001578520486111,0.0,False,NM,4e-06,225,full,False,4e-06
mp-1183583,CaYZn2,-0.294599787499999,0.00188159375,0.0,False,NM,3e-07,225,full,False,3e-07
mp-1183573,CaYbCd2,-0.359801973749998,0.0136247525,0.0,False,NM,3.6e-06,225,full,False,3.6e-06
mp-1183612,CaYbEu2,0.162170828749999,0.162170828749999,0.0,True,FM,15.0000654,225,full,True,15.0000654
mp-1183565,CaYbGa2,-0.52664644875,0.012812946406253,0.0,False,NM,4.4e-06,225,full,False,4.4e-06
mp-1183588,CaYbHg2,-0.5787890575000031,0.004433822500004,0.0,False,NM,6e-07,225,full,False,6e-07
mp-1183625,CaYbIn2,-0.532472083750001,0.024345971875,0.0,False,NM,5e-07,225,full,False,5e-07
mp-1183582,CaYbPb2,-0.494221071249995,0.0,0.0,False,NM,1.5300000000000003e-05,225,full,False,1.5300000000000003e-05
mp-1183592,CaYbPd2,-0.8130302612499981,0.02735485840278,0.0,False,NM,7e-07,225,full,False,7e-07
mp-1183595,CaYbTl2,-0.432217341250002,0.010889145,0.0,False,NM,1.2e-06,225,full,False,1.2e-06
mp-1183577,CaYbZn2,-0.297628513750002,0.038476308749999,0.0,False,NM,3.8e-05,225,full,False,3.8e-05
mp-1100433,CaZnSi,-0.206113539999999,0.221644315,0.0,False,NM,0.0003074,216,half,False,0.0003074
mp-631394,CaZrPd,0.768503563124999,1.287570058263892,0.0,False,NM,0.0030393,216,half,False,0.0030393
mp-861662,CaZrRh2,-0.617494234606482,0.048410579976849,0.0,False,NM,3.399999999999998e-06,225,full,False,3.399999999999998e-06
mp-31170,Cd2AgAu,-0.151908938750001,0.0,0.0,False,NM,1.4e-06,225,full,False,1.4e-06
mp-1183537,Cd2AgPt,-0.174336392916664,0.0,0.0,False,NM,0.0,225,full,False,0.0
mp-861878,Cd2AgRh,-0.093717676249998,0.0,0.0,False,NM,3e-07,225,full,False,3e-07
mp-865926,Cd2PdRh,-0.238275787499999,0.0,0.0,False,NM,1e-07,225,full,False,1e-07
mp-865929,Cd2PtRh,-0.1725645325,0.0,0.0,False,NM,4e-07,225,full,False,4e-07