material_id,formula,formation_energy,ehull,band_gap,is_magnetic,magnetic_ordering,total_magnetization,spacegroup
mp-570798,Er3(P3Pd10)2,-0.733948390615761,0.0,0.0,False,NM,7e-07,225
mp-1193806,Er3(SbPd2)4,-0.8736967209893121,0.037084741555553004,0.0,False,NM,0.0806519,225
mp-1212872,Er3(Si3Pd10)2,-0.834602074482759,0.0,0.0,False,NM,3.1e-06,225
mp-1212915,Er3OF10,-3.688206189999999,0.196261523124998,0.0,True,FM,6.018138,225
mp-1201817,Er3Si11Pt23,-0.856328505135133,0.0,0.0,False,NM,0.393422799999999,225
mp-1212909,Er4CdIr,-0.5324867804166651,0.0,0.0,True,FM,1.149923899999999,216
mp-1212924,Er4CdNi,-0.30102739374999204,0.0,0.0,False,NM,0.0,216
mp-1212944,Er4CdPd,-0.45415427708333306,0.0,0.0,False,NM,8e-07,216
mp-1212949,Er4CdPt,-0.6114999291666671,0.0,0.0158,False,NM,2.5200000000000003e-05,216
mp-567685,Er4InIr,-0.599924862777777,0.0,0.0,False,NM,0.567659,216
mp-571107,Er4InRh,-0.566038751527778,0.0,0.0,False,NM,1.2e-06,216
mp-1212959,Er4MgCo,-0.148976073333334,0.0,0.0,False,NM,0.0116533,216
mp-1212947,Er4MgNi,-0.204522979166663,0.0,0.022299999999999,False,NM,0.0002735,216
mp-1212943,Er4MgRh,-0.40225665583332904,0.0,0.0,False,NM,0.177786399999999,216
mp-1225985,Er5(Sn3Rh)6,-0.533854892413792,0.003511040919539,0.0,False,NM,0.0673589,216
mp-1193693,Er6Al7Cu16,-0.37707961551724,0.0,0.0,False,NM,0.194564,225
mp-2162,Er6Fe23,-0.072521634482757,0.009658902068967001,0.0,True,FiM,50.9481935,225
mp-1193393,Er6Mn23,-0.009849496653781,0.070405911580458,0.0,True,FiM,31.2684359,225
mp-30615,Er6Zn23,-0.34266836534482603,0.012331476896552,0.0,False,NM,5e-07,225
mp-1192426,Er6Zn23Ge,-0.342221312166666,0.0,0.0,False,NM,0.0208175,225
mp-864646,ErAgHg2,-0.31478544166667,0.0,0.0,False,NM,9e-07,225
mp-977535,ErAlAg2,-0.33059408583333105,0.0,0.0,False,NM,0.0,225
mp-1688,ErAs,-1.781448482916666,0.0,0.0,False,NM,2e-07,225
mp-1104598,ErB12,-0.26545000487179404,0.0,0.0,False,NM,0.0,225
mp-23245,ErBi,-1.009372189166669,0.0,0.0,False,NM,7e-07,225
mp-1206953,ErBiPd,-1.024012719444447,0.0,0.0,False,NM,1.899999999999999e-06,216
mp-1206955,ErBiPd,-0.57748750277778,0.44652521666666406,0.24699999999999903,False,NM,0.0021435,216
mp-30454,ErBiPt,-1.166693212777782,0.0,0.0,False,NM,3e-07,216
mp-977378,ErCdAg2,-0.268889338333331,0.0,0.0,False,NM,1.18e-05,225
mp-1184163,ErCdAu2,-0.663572987500001,0.0,0.0,False,NM,4.1e-06,225
mp-12008,ErCdCu4,-0.244247275,0.0,0.0,False,NM,1e-06,216
mp-1184161,ErCdHg2,-0.333100646249999,0.0,0.0,False,NM,3.9300000000000007e-05,225
mp-1072598,ErCdNi4,-0.36060830999999505,0.0,0.0,True,FiM,0.710838299999999,216
mp-863738,ErCdPd2,-0.7462033175,0.0,0.0,False,NM,5.099999999999999e-06,225
mp-1184167,ErCdPt2,-0.836436717499997,0.019687186750002,0.0,False,NM,4.1e-06,225
mp-863739,ErCdRh2,-0.5866167199999971,0.0,0.0,False,NM,2.4e-06,225
mp-1077498,ErCu4Ag,-0.242329630277779,0.0,0.0,False,NM,1.77e-05,216
mp-1077290,ErCu4Au,-0.35113145833333503,0.0,0.0,False,NM,0.000117,216
mp-1077518,ErCu4Pd,-0.38340395388888904,0.0,0.0,False,NM,5.2e-06,216
mp-30579,ErCu5,-0.19254898055555703,0.0008851722222180001,0.0,False,NM,8.099999999999999e-06,216
mp-863711,ErGaRh2,-0.8602678368749961,0.0,0.0,False,NM,5.4e-06,225
mp-1002221,ErH,-0.40715236520833203,0.190553972500001,0.0,False,NM,0.0025781,225
mp-24192,ErH2,-0.79694178361111,0.0,0.0,False,NM,4.3700000000000005e-05,225
mp-1018063,ErH3,-0.6434567719791651,0.07727357999999901,0.0,False,NM,0.0001838,225
mp-1184155,ErHfIr2,-0.883600587499998,0.051184872500002004,0.0,False,NM,0.0044735,225
mp-1184159,ErHfRu2,-0.604877744999999,0.0,0.0,False,NM,3.1e-06,225
mp-30340,ErInAg2,-0.351657399999997,0.0,0.0,False,NM,1.0100000000000002e-05,225
mp-30376,ErInAu2,-0.781622655833331,0.0,0.0,False,NM,9e-06,225
mp-1025066,ErInCo4,-0.139680479444443,0.030717606187214003,0.0,True,FiM,4.4979363,216
mp-4552,ErInCu2,-0.38584118166667003,0.023198708333332003,0.0,False,NM,1.8700000000000004e-05,225
mp-1206262,ErInCu4,-0.32330896222222305,0.0,0.0,False,NM,2e-07,216
mp-1024983,ErInNi4,-0.40161788611110705,0.0,0.0,False,NM,1.9500000000000003e-05,216
mp-11371,ErInPd2,-0.8393273691666661,0.0,0.0,False,NM,1.1200000000000001e-05,225
mp-1184166,ErInPt2,-1.042279470833335,0.04139165442308,0.0,False,NM,3e-06,225
mp-1080382,ErInPt4,-0.8933178799305871,0.06677992166666501,0.0,False,NM,0.015009399999999002,216
mp-977400,ErInRh2,-0.7824713066666661,0.0,0.0,False,NM,2e-07,225
mp-1184202,ErLuCu2,-0.29848373249999904,0.0,0.0,False,NM,0.0018472,225
mp-1184169,ErLuHg2,-0.5589149587500011,0.0,0.0,False,NM,1.3400000000000002e-05,225
mp-977551,ErLuMg2,-0.039560056666664005,0.0016665375000020001,0.0,False,NM,3.83e-05,225
mp-1184303,ErLuPd2,-0.979492949999997,0.0063775425000000005,0.0,False,NM,1.97e-05,225
mp-1184345,ErLuRh2,-0.9768525091666661,0.011047467499999,0.0,False,NM,0.0002468,225
mp-1184363,ErLuRu2,-0.42689341166666506,0.0,0.0,False,NM,9.970000000000001e-05,225
mp-1184360,ErLuZn2,-0.39783284499999905,0.0030640549999990004,0.0,False,NM,6.5e-06,225
mp-1184227,ErMg2Sc,-0.028891146249998,0.010227802499999002,0.0,False,NM,8.800000000000001e-05,225
mp-862681,ErMg3,-0.033069351249999004,0.0,0.0,False,NM,6.099999999999997e-06,225
mp-1184233,ErMgAg2,-0.29576571958333203,0.0,0.0,False,NM,6.3e-06,225
mp-1184216,ErMgAu2,-0.782522481249998,0.0,0.0,False,NM,0.000168,225
mp-863672,ErMgCd2,-0.26142613874999804,0.0,0.0,False,NM,7.9e-06,225
mp-863674,ErMgHg2,-0.43402499250000304,0.0,0.0,False,NM,9e-06,225
mp-1184235,ErMgPd2,-0.8274261262499981,0.0015225850000000001,0.0,False,NM,2.6e-06,225
mp-1184217,ErMgRh2,-0.7482107987499921,0.0,0.0,False,NM,4.1900000000000016e-05,225
mp-1184238,ErMgTl2,-0.173430962916669,0.038896274166666,0.0,False,NM,0.007979,225
mp-977433,ErMgZn2,-0.328422618749999,0.0,0.0,False,NM,8e-07,225
mp-1077334,ErMnNi4,-0.30083707632183804,0.019210849731802003,0.0,True,FM,5.4409153,216
mp-19830,ErN,-2.099608916041667,0.0,0.12429999999999901,False,NM,0.0,225
mp-866026,ErNbOs2,-0.20173573999999603,0.10686802075000301,0.0,False,NM,3e-07,225
mp-867919,ErNbRu2,-0.354396067499999,0.0,0.0,False,NM,1.6e-06,225
mp-1025001,ErNi4Au,-0.40452165833333203,0.0,0.0,True,FM,0.2120418,216
mp-1206712,ErNiBi,-0.661394963333332,0.0,0.169999999999999,False,NM,0.0,216
mp-21272,ErNiSb,-0.9674753699999991,0.0,0.27390000000000003,False,NM,0.0,216
mp-1144,ErP,-1.842191485654762,0.0,0.0,False,NM,0.0,225
mp-1184323,ErPaOs2,-0.240160375000002,0.020522579374997,0.0,False,NM,0.0001015,225
mp-867918,ErPaRu2,-0.43422516000000205,0.0,0.0,True,FM,0.10158829999999901,225
mp-863734,ErPaTc2,-0.21812609083333,0.0022695174999890003,0.0,False,NM,3.4900000000000015e-05,225
mp-30377,ErPbAu,-0.657796673333332,0.0,0.0,False,NM,7e-07,216
mp-1206593,ErPd2Pb,-0.708994764999998,0.016733641666666,0.0,False,NM,1e-07,225
mp-863735,ErRh2Pb,-0.5773328749999981,0.0,0.0,True,FM,0.8871139,225
mp-1623,ErS,-2.1950863680729142,0.0,0.0,False,NM,8e-07,225
mp-2191,ErSb,-1.311072816666666,0.0,0.0,False,NM,1.3e-06,225
mp-11836,ErSbPd,-1.234696921111113,0.0,0.20929999999999901,False,NM,0.0,216
mp-16329,ErSbPt,-1.377276774444444,0.0,0.0,False,NM,0.0,216
mp-1184244,ErSbRh2,-0.7447283649999981,0.057793519375000005,0.0,False,NM,0.0018919,225
mp-1184223,ErScRu2,-0.45436001875000004,0.004754489687499,0.0,False,NM,5e-07,225
mp-1184239,ErScZn2,-0.35915438874999905,0.008757707499999,0.0,False,NM,1.2100000000000001e-05,225
mp-2491,ErSe,-1.925282436197914,0.0,0.0,False,NM,3e-06,225
mp-5640,ErSnAu,-0.8443013916666671,0.0,0.006099999999999,False,NM,5e-07,216
mp-5850,ErSnPd2,-0.891888471249997,0.0,0.0,False,NM,5.5e-06,225
mp-862931,ErSnRh2,-0.8253240662500001,0.0,0.0,True,FM,0.7563726,225
mp-866285,ErSnRu2,-0.39388771374999904,0.0,0.0,False,NM,0.0006904999999990001,225
mp-984707,ErTa3,0.363166789999993,0.363166789999993,0.0,False,NM,0.00016979999999900002,225
mp-866299,ErTaOs2,-0.280121181833331,0.050062084208335,0.0,False,NM,0.0,225
mp-863679,ErTaRu2,-0.425428669333328,0.0,0.0,False,NM,2e-07,225
mp-1184267,ErTc2W,-0.032315990833339005,0.15464682062499602,0.0,False,NM,0.0006336,225
mp-1280,ErTe,-1.4052320416666642,0.005916230833332,0.0,False,NM,9.199999999999997e-06,225
mp-1184246,ErThRu2,-0.463069272499998,0.0,0.0,False,NM,0.0001718,225
mp-863681,ErThTc2,-0.121149699822282,0.10287485562500301,0.0,False,NM,0.00046859999999900005,225
mp-1184208,ErTlRh2,-0.566931473333333,0.0022065429166670003,0.0,False,NM,7.9e-06,225
mp-1184253,ErTmAg2,-0.33566327583333405,0.006416204999998,0.0,False,NM,2.0700000000000002e-05,225
mp-1184284,ErTmCd2,-0.288041309999999,0.0070569875,0.0,False,NM,4.1e-06,225
mp-1184262,ErTmCu2,-0.290866678333333,0.0018187099999980002,0.0,False,NM,1.6e-06,225
mp-1184249,ErTmHg2,-0.567937122083328,0.0,0.0,False,NM,4e-07,225
mp-1184271,ErTmIn2,-0.548965890833333,0.010589151250002002,0.0,False,NM,2.8900000000000005e-05,225
mp-1184240,ErTmMg2,-0.04373961750000201,0.0021434174999970003,0.0,False,NM,1.0800000000000002e-05,225
mp-1184248,ErTmPd2,-0.9679020358333331,0.003790909999999,0.0,False,NM,3.1e-06,225
mp-1184242,ErTmRu2,-0.402363897500001,0.0,0.0,False,NM,0.0001003,225
mp-1184245,ErTmTl2,-0.294737454166669,0.0,0.0,False,NM,8.970000000000001e-05,225
mp-1184251,ErTmZn2,-0.393820788333332,0.005236987499998001,0.0,False,NM,0.0008221,225
mp-1184222,ErZnPd2,-0.767109732499998,0.017268314166665,0.0,False,NM,0.0005876999999990001,225
mp-977538,ErZnRh2,-0.6963999724999981,0.0,0.0,False,NM,7e-07,225
mp-1184237,ErZrRu2,-0.543503887499998,0.0,0.0,False,NM,8e-07,225
mp-623532,Eu,0.031110114999997003,0.031110114999997003,0.0,True,FM,8.2040287,225
mp-1183891,Eu2AgAu,-0.5343744529166711,0.018999938124999,0.0,True,FM,14.8140726,225
mp-1183883,Eu2AgBi,-0.751411594166668,0.036349747083335,0.0,True,FM,14.0028582,225
mp-1183896,Eu2AgGe,-0.554516290312502,0.032780057187501,0.0,True,FM,13.7159599,225
mp-1183893,Eu2AgHg,-0.43878553812500304,0.022231307500000002,0.0,True,FM,14.4572361,225
mp-1184199,Eu2AgPb,-0.44498405291666804,0.0,0.0,True,FM,13.7945779,225
mp-1183902,Eu2AgPd,-0.482664801666672,0.027295416458329003,0.0,True,FM,14.276809,225
mp-1183904,Eu2AgPt,-0.6038651929166681,0.046861390625002004,0.0,True,FM,14.1938073,225
mp-1183909,Eu2AgRh,-0.331835102125001,0.037133641749999,0.0,True,FiM,13.9907177,225
mp-1183942,Eu2AgSb,-0.7561822879166691,0.03746616982143,0.0,True,FM,13.9946797,225
mp-1183890,Eu2AgSn,-0.5876666862500031,0.012993318125001001,0.0,True,FM,13.8081242,225
mp-1183880,Eu2AsAu,-0.9944886568750021,0.041879585833331005,0.0,True,FM,14.0023971,225
mp-1183887,Eu2BiAu,-0.8428153075000051,0.0007771104166640001,0.0,True,FM,13.9998499,225
mp-1517851,Eu2BiSbO6,-2.310693319000001,0.26426902500000005,0.10599999999999901,True,FM,13.9999999,225
mp-1183877,Eu2CdGa,-0.43402902749999905,0.026058021875002002,0.0,True,FM,14.2003621,225
mp-1183885,Eu2CdGe,-0.588062636562501,0.026755790312503,0.0,True,FM,14.0046723,225
mp-1183915,Eu2CdHg,-0.485680344375005,0.009982802499997001,0.0,True,FM,14.3703406,225
mp-1183962,Eu2CdPb,-0.48310122750000106,0.0,0.0,True,FM,14.105118,225
mp-1183888,Eu2CdSn,-0.5492283262500041,0.0,0.0,True,FM,14.1228856,225
mp-1520430,Eu2CoWO6,-2.478047705,0.125529957499997,0.0,True,FiM,16.2706353,225
mp-1517471,Eu2CrInO6,-2.480695680666667,0.332054386999999,0.0,True,FM,15.0000004,225
mp-1516449,Eu2CrSbO6,-2.619188668000001,0.13297892825000002,0.0,True,FiM,10.3409165,225
mp-1521253,Eu2CrSnO6,-2.6536272505,0.140000028312497,0.0,True,FM,16.0000004,225
mp-1183898,Eu2CuIr,-0.221375352500002,0.05963290437499601,0.0,True,FiM,13.8163366,225
mp-1183906,Eu2CuRh,-0.22981733250000103,0.045792965425000005,0.0,True,FiM,13.8929611,225
mp-1521818,Eu2DyMnO6,-2.94672887395977,0.304581033833331,0.0,True,FM,16.0000002,225
mp-1523259,Eu2DySbO6,-2.992347762166667,0.196635250599999,0.21930000000000002,True,FM,14.0000004,225
mp-1205520,Eu2DyTaO6,-3.472434145900001,0.062479097499998006,0.0,True,FM,14.0000001,225
mp-1518182,Eu2DyWO6,-2.974335327166666,0.238399854124999,0.0,True,FiM,12.9977473,225
mp-1206839,Eu2ErTaO6,-3.502433621733334,0.045491700999999,0.6359,True,FM,14.0012898,225
mp-1079126,Eu2FeH6,-0.6232069008333341,0.0,0.07209999999999901,True,FM,14.0000003,225
mp-1520955,Eu2FeSnO6,-2.487598995500001,0.16439341399999902,0.0,True,FM,18.0000008,225
mp-1521041,Eu2FeWO6,-2.521126592,0.113768692249994,0.0,True,FiM,17.5696206,225
mp-1183895,Eu2GaHg,-0.5533836668750071,0.023563906874997,0.0,True,FM,14.3423379,225
mp-1206027,Eu2GdTaO6,-3.419323127733334,0.08818161874999901,0.6783,True,FM,21.0000006,225
mp-1205815,Eu2H6Ir,-0.670996603611112,0.0,0.0,True,FM,14.1742492,225
mp-634945,Eu2H6Ru,-0.6883325719444421,0.0,0.0,True,FM,14.0000005,225
mp-1518318,Eu2HfFeO6,-3.06860048,0.156232988249996,0.0,True,FM,18.0000008,225
mp-1518357,Eu2HfNbO6,-3.389352887000002,0.04226190400001,0.0,True,FiM,1.267519,225
mp-1517993,Eu2HfSnO6,-3.141001103500001,0.11346896774999601,0.2862,True,FM,13.9999996,225
mp-1521653,Eu2HfTiO6,-3.622099957333334,0.016994092500002,0.0034999999999990004,True,FM,13.9542585,225
mp-1518592,Eu2HfVO6,-3.305448941000001,0.056677607250010004,0.0,True,FM,14.9999999,225
mp-1518017,Eu2HfWO6,-3.074313930000001,0.159715639499994,0.0,True,FM,15.9999995,225
mp-1520691,Eu2HfZrO6,-3.6333716460000023,0.046556860250001005,0.3481,True,FM,13.9999999,225
mp-1183879,Eu2HgBi,-0.8534712054166741,0.028017686041664002,0.0,True,FM,14.7744249,225
mp-867299,Eu2HgGe,-0.6929614193750021,0.017306600000004002,0.0,True,FM,14.0034058,225
mp-1183882,Eu2HgSb,-0.8183727956250041,0.034932250416677,0.0,True,FM,14.9854451,225
mp-1205701,Eu2HoTaO6,-3.487174774233334,0.0933971675,0.635899999999999,True,FM,13.9999941,225
mp-1518585,Eu2InFeO6,-2.303239613666668,0.34463634999999804,0.0,True,FM,17.0000008,225
mp-1184056,Eu2InHg,-0.49055253479167105,0.0,0.0,True,FM,14.317811,225
mp-1205856,Eu2LuTaO6,-3.542649322400001,0.021948368812497003,0.5686,True,FM,13.9999806,225
mp-1183886,Eu2MgCd,-0.181061806250004,0.010500967812497,0.0,True,FM,14.5707713,225
mp-1184025,Eu2MgIn,-0.27366658791666804,0.0,0.0,True,FM,14.1275624,225
mp-1183894,Eu2MgSn,-0.435550752500001,0.033846496458332,0.0,True,FM,14.1602804,225
mp-1183884,Eu2MgTl,-0.251802847083338,0.0,0.0,True,FM,14.212694,225
mp-1205507,Eu2MgWO6,-2.9310433685,0.019029377999999,0.278599999999999,True,FM,14.0000001,225
mp-1516440,Eu2MnWO6,-2.674874771793104,0.069843946999998,0.38759999999999906,True,FM,19.0000014,225
mp-1517980,Eu2NbBiO6,-2.669354716000001,0.28714684067857005,0.8025000000000001,True,FM,13.9999997,225
mp-1516596,Eu2NbFeO6,-2.886674052000002,0.08298335024999601,0.0,True,FM,18.5562942,225
mp-1516804,Eu2NbInO6,-2.8836420666666682,0.11304585091666601,0.32720000000000005,True,FM,14.0002311,225
mp-1518500,Eu2NbSnO6,-2.7533986915,0.23848616299999703,0.0,True,FM,14.9999997,225
mp-1519174,Eu2NbWO6,-2.8138781780000013,0.162676300187497,0.0,True,FM,16.9885395,225
mp-1516191,Eu2NbZnO6,-2.862984771000001,0.15307958999999902,0.0,True,FM,12.9992803,225
mp-1517339,Eu2NiBiO6,-2.048007244000001,0.35735580912499604,0.0,True,FM,15.0000008,225
mp-1516533,Eu2NiSbO6,-2.385380913000001,0.147150607437495,0.0,True,FM,15.0000005,225
mp-1516887,Eu2NiWO6,-2.516327713,0.082602808124994,0.44299999999999906,True,FM,16.0000006,225
mp-1184039,Eu2PdAu,-0.721978855000002,0.023304131250000002,0.0,True,FM,14.178131,225
mp-867502,Eu2PtAu,-0.840425847500002,0.017715873645833,0.0,True,FM,14.1625038,225
mp-1184372,Eu2SbAu,-0.9396289225000001,0.020335688295454003,0.0,True,FM,13.9998426,225
mp-867477,Eu2SnHg,-0.757291811875006,0.0,0.0,True,AFM,5.6e-06,225
mp-1205947,Eu2TaAlO6,-3.442870456733334,0.0,0.33940000000000003,True,FM,14.0460557,225
mp-1518128,Eu2TiInO6,-2.962615741000001,0.17645523200000002,0.0,True,FM,13.0000005,225
mp-1521061,Eu2TiNbO6,-3.343293049333334,0.007749665500037001,0.0,True,FM,13.5124513,225
mp-1520000,Eu2TiSbO6,-2.862160304333335,0.21632819724999602,0.0,True,FM,13.8477195,225
mp-1184281,Eu2TlCd,-0.46302055749999405,0.0,0.0,True,FM,14.2755967,225
mp-1184263,Eu2TlHg,-0.573754386875002,0.0,0.0,True,FM,14.3586689,225
mp-1184473,Eu2TlIn,-0.40420174750000504,0.0,0.0,True,FM,14.1369829,225
mp-1184286,Eu2TlSn,-0.6481772074999981,0.001868195000007,0.0,True,FM,14.4603059,225
mp-1184322,Eu2TlZn,-0.333306868333339,0.0,0.0,True,FM,14.2880592,225
mp-1205480,Eu2TmTaO6,-3.520545058733334,0.035624965624998006,0.0,True,FM,14.0000179,225
mp-1516546,Eu2VSbO6,-2.630698326000001,0.16345925131250202,0.0,True,FM,15.9999994,225
mp-1520585,Eu2VWO6,-2.733905529000002,0.080634846749999,0.39420000000000005,True,FM,16.9999997,225
mp-1519983,Eu2YNbO6,-3.333186449000001,0.10768180268751701,0.2671,True,FM,14.0000004,225
mp-1517190,Eu2YSbO6,-2.9749174170000012,0.200674138374997,0.253899999999999,True,FM,14.0000004,225
mp-1206828,Eu2YTaO6,-3.457112330733333,0.06500744843749601,0.5364,True,FM,13.9999998,225
mp-1522779,Eu2YVO6,-3.119232440000002,0.23619279050000402,0.0,True,FM,13.9990334,225
mp-1517152,Eu2YWO6,-2.966332079000001,0.23126823512500003,0.0,True,FM,15.0000004,225
mp-1184356,Eu2ZnAg,-0.267360897916669,0.012172680625001,0.0,True,FM,14.5164585,225
mp-1184288,Eu2ZnCd,-0.278945929999999,0.009254202500002001,0.0,True,FM,14.3204724,225
mp-1184310,Eu2ZnGa,-0.36410854687500305,0.0,0.0,True,FM,14.1003059,225
mp-1184247,Eu2ZnHg,-0.393471513125003,0.0031531600000010004,0.0,True,FM,14.2986749,225
mp-1184464,Eu2ZnIn,-0.34992546166666805,0.0,0.0,True,FM,14.2418104,225
mp-1184277,Eu2ZnIr,-0.29707710750000305,0.048384179999995,0.0,True,FiM,14.0233341,225
mp-1184339,Eu2ZnRh,-0.31278199250000205,0.025140962874999003,0.0,True,FM,14.1319807,225
mp-1184291,Eu2ZnSn,-0.512197548750003,0.006527789791664001,0.0,True,FM,14.0856908,225
mp-1523086,Eu2ZnWO6,-2.612324040000001,0.07944201849999401,0.46950000000000003,True,FM,13.9999996,225
mp-1520930,Eu2ZrCrO6,-3.166097654000002,0.10693787075000001,0.0,True,FM,16.0000008,225
mp-1519374,Eu2ZrFeO6,-2.974647611000001,0.18832787149999303,0.0,True,FM,18.0000007,225
mp-1516495,Eu2ZrNbO6,-3.317280466000001,0.074596705250039,0.0,True,FM,13.599176,225
mp-1517132,Eu2ZrSnO6,-3.059958994500001,0.132653090999998,0.5011999999999991,True,FM,13.9999997,225
mp-1520462,Eu2ZrTiO6,-3.537095413333334,0.062261016749999,0.0034000000000000002,True,FM,14.0001123,225
mp-1523032,Eu2ZrVO6,-3.217619104000003,0.097406401812499,0.0,True,FM,14.9999998,225
mp-1520588,Eu2ZrWO6,-2.984259763000001,0.18791182074999202,0.0,True,FiM,11.6227842,225
mp-1184312,Eu3Mg,0.031587424999996006,0.063797055312496,0.0,True,FM,22.5582723,225
mp-1006150,Eu3Re,0.5966979612500011,0.5966979612500011,0.0,True,FiM,20.5055724,225
mp-1184433,Eu3Ta,0.6953116874999951,0.6953116874999951,0.0,True,FM,23.6622618,225
mp-21406,Eu3TaO6,-3.235992456233334,0.15895248150000102,0.0,True,FM,20.0102441,225
mp-1184446,Eu3Tc,0.45057999624999906,0.45057999624999906,0.0,True,FiM,20.164587,225
mp-1184379,Eu3Th,0.24672141000000603,0.24672141000000603,0.0,True,FM,22.0863202,225
mp-1184456,Eu3U,0.6478931624999971,0.6478931624999971,0.0,True,FM,25.1545375,225
mp-1184340,Eu3V,0.474173812499998,0.474173812499998,0.0,True,FM,26.3830446,225
mp-754296,Eu3WO6,-2.824687303500002,0.21744208237499502,0.15259999999999901,True,FM,20.9999637,225
mp-1196262,Eu7Cu44As23,-0.25716695172297305,0.0,0.0,True,FM,46.8486049,225
mp-1184463,EuAg2Pb,-0.260701514583333,0.00809309277778,0.0,True,FM,6.9961791,225
mp-865192,EuAg2Sn,-0.35678689625000004,0.049717458750002004,0.0,True,FM,6.9422387,225
mp-865013,EuAgAu2,-0.477775561666668,0.080017365833333,0.0,True,FM,6.863336,225
mp-1184389,EuAgHg2,-0.378902198611115,0.027776018888886003,0.0,True,FM,7.1865409,225
mp-1184365,EuAu3,-0.526885151250001,0.059975251666669005,0.0,True,FM,6.800796,225
mp-1096955,EuB12,-0.19309469576923002,0.10249230115384401,0.0,True,FM,6.7566041,225
mp-1184261,EuBiAu2,-0.556531636250003,0.0063552212500040004,0.0,True,FM,6.6981437,225
mp-1184306,EuBiPd2,-0.594776082499997,0.07509802687497501,0.0,True,FM,6.8575783999999995,225
mp-1184455,EuCd2In,-0.27238480791666503,0.021413974843751002,0.0,True,FM,6.9977459,225
mp-864634,EuCd3,-0.30332289374999905,0.019843243749999,0.0,True,FM,7.0859936,225
mp-1184330,EuCdAg2,-0.252489477499999,0.028090370625001002,0.0,True,FM,7.0098481,225
mp-866297,EuCdAu2,-0.560563128750003,0.0,0.0,True,FM,7.0225664,225