material_id,formula,formation_energy,ehull,band_gap,is_magnetic,magnetic_ordering,total_magnetization,spacegroup
mp-978881,SnAs3,0.354681655520835,0.3922098271875,0.0,False,NM,0.0042673,225
mp-978882,SnBi3,0.106889578749999,0.106889578749999,0.0,False,NM,0.0048607,225
mp-1009820,SnC,0.8178256637499991,0.8178256637499991,0.6257,False,NM,0.0010282,216
mp-1009822,SnC,1.295525238749999,1.295525238749999,0.0,False,NM,0.0021784,225
mp-8289,SnF3,-2.533785512499999,0.0146278146875,2.7195,False,NM,0.0,225
mp-23763,SnH8(NCl3)2,-0.984600160882353,0.0,2.3281,False,NM,1.3e-06,225
mp-696275,SnH8(NCl3)2,-0.9779694191176471,0.006630741764706001,2.5482,False,NM,1e-06,225
mp-631308,SnIrSe2,0.454572592187489,0.9587951840624981,0.0,False,NM,0.012131399999999001,216
mp-12979,SnO2,-1.8618239416666662,0.245658063333333,0.0,False,NM,0.0001138,225
mp-631946,SnOs2Ru,0.604863694077387,0.669797796785715,0.0,True,FM,1.8679682,216
mp-475,SnP,0.036222141011904005,0.040785102499999004,0.0,False,NM,1.1e-06,225
mp-631387,SnRuW,0.6243340659523731,0.714231097777776,0.0,False,NM,0.000117899999999,216
mp-10013,SnS,-0.19369474390624902,0.27838637125000004,0.16540000000000002,False,NM,0.0002162,216
mp-1876,SnS,-0.38045513140625004,0.091625983749999,0.08940000000000001,False,NM,0.0,225
mp-10635,SnSb,0.037633864999996006,0.037633864999996006,0.0,False,NM,2e-07,225
mp-16365,SnSb,0.157167639999997,0.157167639999997,0.0,False,NM,0.0015175,216
mp-2693,SnSe,-0.412360309531251,0.041185998749998,0.1189,False,NM,0.0,225
mp-16364,SnTe,-0.012551445000003,0.252498434999999,0.07739999999999901,False,NM,0.0,216
mp-1883,SnTe,-0.265049880000002,0.0,0.04190000000000001,False,NM,0.0,225
mp-978885,SnTe3,-0.018563933333336002,0.113961006666663,0.0,False,NM,0.002495899999999,225
mp-76,Sr,0.044811709999999005,0.044811709999999005,0.0,False,NM,0.0041792,225
mp-642031,Sr11Al4In3,-0.256080985277777,0.002826152746914,0.0,False,NM,0.164785,225
mp-571154,Sr11Al4Sn3,-0.46070700238683004,0.0011546589403310002,0.0,False,NM,0.1325364,225
mp-567959,Sr11Ga4Sn3,-0.5823115708333351,0.000589662460317,0.0,False,NM,0.08508109999999901,225
mp-642418,Sr11In3Ga4,-0.352614419722219,0.0,0.0,False,NM,2.9923954,225
mp-642322,Sr11In7,-0.341249693981482,0.008803466245913001,0.0,False,NM,3.3187868,225
mp-641775,Sr19In8N7,-0.58595343377451,0.0,0.0,False,NM,0.001063699999999,225
mp-642281,Sr21In8Pb7,-0.486010008425925,0.0048654563194430005,0.0,False,NM,1.468897699999999,225
mp-867163,Sr2AgPt,-0.53065463979167,0.066738841249996,0.0,False,NM,0.00018539999999900002,225
mp-1518543,Sr2AlBiO6,-2.628096826999999,0.056714238374997006,0.0,False,NM,0.0,225
mp-1208835,Sr2AlSbO6,-2.927464959999999,0.010476238697921001,1.8987,False,NM,0.0,225
mp-863258,Sr2AsAu,-1.117750643652254,0.006150627895831,0.500799999999999,False,NM,0.000116,225
mp-867193,Sr2BiAu,-0.9549747737500021,0.036835871666667006,0.3936,False,NM,0.0,225
mp-1518359,Sr2BiSbO6,-2.379229407,0.093383273999998,1.6981000000000002,False,NM,0.0,225
mp-1520339,Sr2CaCrO6,-2.576121714,0.169495465250001,0.4963,False,NM,0.0,225
mp-1187134,Sr2CaEu,0.031589899166664,0.031589899166664,0.0,True,FM,7.7400411,225
mp-1521761,Sr2CaMnO6,-2.463524308793103,0.11186901128571002,0.0,True,FM,4.1758338,225
mp-18962,Sr2CaMoO6,-2.846689875,0.0728042445,2.256399999999999,False,NM,0.0002893,225
mp-1206283,Sr2CaOsO6,-2.634856546999999,0.004777861890918,0.0,True,FM,2.0010488,225
mp-18981,Sr2CaWO6,-2.976089123999999,0.07301979900000001,3.2349,False,NM,0.0,225
mp-1187072,Sr2CdGa,-0.337521924374999,0.021435529305556002,0.0,False,NM,0.0107051,225
mp-1187079,Sr2CdHg,-0.40618555062500106,0.00886752,0.0,False,NM,3e-07,225
mp-862720,Sr2CdIn,-0.379173486666666,0.0,0.0,False,NM,0.0003454,225
mp-862721,Sr2CdPb,-0.48391350999999805,0.0,0.0,False,NM,0.0,225
mp-867149,Sr2CdSn,-0.5273631212499991,0.0,0.0,False,NM,4.1e-06,225
mp-18903,Sr2CdWO6,-2.536973467,0.081586948,3.543,False,NM,2e-06,225
mp-1516786,Sr2CeBiO6,-2.767478056,0.17415432200001602,0.0,True,FM,0.4416967,225
mp-1516664,Sr2CeCoO6,-2.71736649,0.106362398199991,0.0,True,FiM,1.0,225
mp-1520688,Sr2CeCrO6,-3.006877589999999,0.127738065250005,0.0,True,FM,2.0000002,225
mp-1521510,Sr2CeFeO6,-2.838073395999999,0.098343970999998,0.0,True,FM,4.0000001,225
mp-1517419,Sr2CeGeO6,-3.0996312835,0.116605703,2.0483,False,NM,0.0,225
mp-1520596,Sr2CeHfO6,-3.602377974999998,0.11512754749999801,2.4374000000000002,False,NM,0.0,225
mp-1522818,Sr2CeNbO6,-3.2972228120000002,0.12868204576471,0.0,True,FM,0.9999979,225
mp-1517357,Sr2CeNiO6,-2.6470964159999992,0.07202978900000401,1.322899999999999,False,NM,0.0,225
mp-1518760,Sr2CeSbO6,-2.932897099999999,0.135887428600002,0.0,True,FM,0.945933999999999,225
mp-1521551,Sr2CeSiO6,-3.383880043,0.18969011874999703,1.763,False,NM,0.0,225
mp-1519033,Sr2CeSnO6,-3.0573001265,0.072702252749996,2.326699999999999,False,NM,0.0,225
mp-1522630,Sr2CeTiO6,-3.490021248333333,0.10023376049997801,2.2495,False,NM,0.0,225
mp-1520912,Sr2CeVO6,-3.143956961999999,0.132849214849997,0.0,True,FM,0.9999998,225
mp-1519666,Sr2CeZrO6,-3.517904236,0.12424823874999501,2.4785,False,NM,0.0,225
mp-1519628,Sr2CoBiO6,-1.980132194,0.161386671586966,0.0,False,NM,0.0,225
mp-510546,Sr2CoMoO6,-2.475307321000001,0.0,0.0,True,AFM,0.0035887999999990004,225
mp-1205631,Sr2CoSbO6,-2.3511290415,0.024704867000018,0.20169999999999902,True,AFM,3e-06,225
mp-550274,Sr2CoWO6,-2.590911396000001,0.014350736500004001,0.0,True,FM,2.9999955,225
mp-1520897,Sr2CrBiO6,-2.341659418,0.113138467609369,0.272699999999999,True,FM,3.0000003,225
mp-1517551,Sr2CrInO6,-2.368671232666666,0.166070148937493,0.0,True,FM,1.0000002,225
mp-1205606,Sr2CrMoO6,-2.642932968999999,0.047035499249997004,0.0,True,FM,3.9953304,225
mp-1205582,Sr2CrOsO6,-2.484821814,0.007930004000006001,0.0,True,FiM,0.0089378,225
mp-1205958,Sr2CrReO6,-2.67028520825,0.018688741547611,0.0,True,FiM,1.0003011,225
mp-1518341,Sr2CrSbO6,-2.646299637999999,0.027231205999999,1.349999999999999,True,FM,3.0000006,225
mp-1521920,Sr2CrSnO6,-2.5439687675,0.097284149083337,0.0,True,FM,2.0000005,225
mp-1207052,Sr2CrWO6,-2.7655281984999993,0.0,0.0,True,AFM,1e-06,225
mp-1520951,Sr2CuBiO6,-1.956773241,0.064308278843747,0.0,False,NM,2.34e-05,225
mp-1187070,Sr2CuPt,-0.39627273634166105,0.121466685674999,0.0,False,NM,6.620000000000001e-05,225
mp-1517843,Sr2CuSbO6,-2.205284823,0.08253131399999801,0.0,True,FM,0.3034541,225
mp-1520595,Sr2CuWO6,-2.441260219999999,0.07597998900000301,0.0,True,FM,0.0301035,225
mp-1522016,Sr2DyBiO6,-2.758247966166666,0.09786164099999901,1.9765000000000001,False,NM,0.0,225
mp-1517166,Sr2DyCrO6,-2.873583042166665,0.145832028687495,0.0,True,FM,1.0000002,225
mp-1518012,Sr2DyFeO6,-2.690384840166666,0.07715463050000901,0.22190000000000001,True,FiM,3.0000002,225
mp-1519151,Sr2DyMnO6,-2.83363017195977,0.073227544916663,0.0,True,FiM,2.0006673,225
mp-1517204,Sr2DyNbO6,-3.407399090166666,0.058868409499998005,2.8969,False,NM,0.0,225
mp-13938,Sr2DyReO6,-2.999338294416667,0.08651884891667701,0.0,False,NM,0.0919374,225
mp-1519036,Sr2DySbO6,-3.059819688166666,0.050392990500000005,3.4625999999999992,False,NM,0.0,225
mp-1517072,Sr2DySeO6,-2.660345174401041,0.180159453749996,0.0,True,FM,0.413734699999999,225
mp-1205924,Sr2DyUO6,-3.575362912166666,0.10429275075000301,0.903,True,FM,0.9999743,225
mp-1517709,Sr2DyVO6,-3.157442022166667,0.11293031850004501,0.0,False,NM,0.0,225
mp-1519670,Sr2DyWO6,-3.037937008166666,0.132904353708326,0.0,True,FM,1.0,225
mp-13939,Sr2ErReO6,-3.03235778425,0.066511438416677,0.0,True,FM,1.9855941,225
mp-1207220,Sr2ErUO6,-3.602642082999998,0.09002565925000101,0.9143999999999991,True,FM,1.0001067,225
mp-1518069,Sr2EuBiO6,-2.5087247675000013,0.152982554999988,0.0,True,FM,5.9999999,225
mp-1517600,Sr2EuCrO6,-2.645773839499999,0.233672925687494,0.0,True,FM,7.0000001,225
mp-1520277,Sr2EuNbO6,-3.140314507500001,0.18598468649999902,0.0,True,FM,6.0000001,225
mp-1522276,Sr2EuSbO6,-2.7989183535,0.09103377599999801,0.0,True,FM,6.0000002,225
mp-1521428,Sr2EuVO6,-2.8985133765000013,0.231890658500045,0.0,True,FM,5.9999998,225
mp-1519577,Sr2EuWO6,-2.8843723175,0.144570147499992,0.0,True,FM,6.9999999,225
mp-1205525,Sr2FeBiO6,-2.212546675000001,0.030135142333336,0.349599999999999,True,FM,5.0036081,225
mp-1094054,Sr2FeCoO6,-2.091232943,0.020168378677417,0.0,True,FM,7.1284189,225
mp-1078746,Sr2FeH6,-0.618383489722221,0.0,1.3141999999999991,False,NM,0.0,225
mp-19127,Sr2FeMoO6,-2.531848193,0.0007381334166740001,0.1887,True,AFM,3e-07,225
mp-1095170,Sr2FeOsO6,-2.332112187499999,0.0,0.0,True,AFM,0.0,225
mp-1218831,Sr2FeRuO6,-2.291433211,0.0,0.0,True,FM,7.8719839,225
mp-1207219,Sr2FeSbO6,-2.5131175362500002,0.010652205250000001,1.6652,True,AFM,0.0,225
mp-1218817,Sr2FeSnO6,-2.376061257499999,0.054109509750002005,0.0,True,FM,4.1386319,225
mp-549767,Sr2FeWO6,-2.458782095000001,0.20423323300000001,0.0,False,NM,0.0006611,225
mp-1523254,Sr2GaBiO6,-2.32745525075,0.069546012562503,0.0,False,NM,0.0,225
mp-1187068,Sr2GaHg,-0.450507717500001,0.019191001805556003,0.0,False,NM,0.004001999999999,225
mp-1207126,Sr2GaOsO6,-2.412834986749999,0.032543101301138,0.2073,True,FM,3.0000674,225
mp-1206618,Sr2GaReO6,-2.593574003999999,0.08304096933749701,0.0,True,FM,2.0000542,225
mp-6065,Sr2GaSbO6,-2.61723140975,0.038987577749999,0.7291000000000001,False,NM,0.0,225
mp-1516850,Sr2GdBiO6,-2.715598971,0.111260534000003,1.713899999999999,True,FM,6.9999999,225
mp-1518869,Sr2GdCrO6,-2.82390501,0.168101563937502,0.0,True,FiM,6.0,225
mp-1518802,Sr2GdNbO6,-3.356984649,0.081874353749999,2.5504,True,FM,7.0000002,225
mp-13936,Sr2GdReO6,-2.9614581922500003,0.09699045416667701,0.0,True,FiM,4.9988586,225
mp-1523327,Sr2GdSbO6,-3.012869770999999,0.038793711249999,3.3244,True,FM,7.0000001,225
mp-1520195,Sr2GdVO6,-3.110878473999999,0.132085369749988,1.4759,True,FM,7.0000001,225
mp-1522401,Sr2GdWO6,-2.98933727,0.16288076833333,0.0,True,FM,8.0000002,225
mp-1078677,Sr2H6Os,-0.6854521869444451,0.0,2.4354,False,NM,0.0,225
mp-24292,Sr2H6Ru,-0.6912334919444441,0.0,2.236099999999999,False,NM,0.0,225
mp-1517280,Sr2HfCoO6,-2.7985283350000003,0.107564000177417,0.0,True,FM,4.9898687,225
mp-1095039,Sr2HfCrO6,-3.195316816999998,0.033016028468754004,0.0,True,AFM,0.009299499999999001,225
mp-1078912,Sr2HfFeO6,-2.9756634325,0.042010477999998005,0.0,True,AFM,0.014016899999999001,225
mp-1518847,Sr2HfNbO6,-3.441441281,0.058863881964306,0.0,False,NM,0.028414599999999002,225
mp-1520511,Sr2HfSnO6,-3.206213897499999,0.018647883249999,3.7826999999999993,False,NM,0.0,225
mp-1523046,Sr2HfTiO6,-3.660298673333334,0.021714934500003003,2.4253,False,NM,0.0,225
mp-1518433,Sr2HfVO6,-3.307124305,0.05804287293011601,0.0,True,FM,0.9999998,225
mp-1523371,Sr2HfWO6,-3.117664536,0.113890430999992,0.0,True,FM,2.0,225
mp-1519753,Sr2HfZrO6,-3.692944157999999,0.044067718249998,3.4242,False,NM,0.0,225
mp-1187086,Sr2HgGe,-0.557889294375002,0.014731738749999002,0.045399999999999004,False,NM,0.0,225
mp-867207,Sr2HgPb,-0.597141415625003,0.0,0.12049999999999901,False,NM,0.0,225
mp-7888,Sr2HoReO6,-3.01842336775,0.073062191854177,0.0,True,FM,1.9994257,225
mp-1205846,Sr2HoUO6,-3.588477880499998,0.09680619868750401,0.9093,True,FM,1.0001175,225
mp-1518215,Sr2InBiO6,-2.2340397986666662,0.070914867749999,0.0,False,NM,0.0,225
mp-1187240,Sr2InHg,-0.479376847291668,0.0,0.0,False,NM,0.0008215999999990001,225
mp-1205776,Sr2InOsO6,-2.309462207666666,0.052034071,0.3809,True,FM,2.9999979,225
mp-1205698,Sr2InReO6,-2.480303762916667,0.10849896726189401,0.0,True,FM,1.999971899999999,225
mp-1518061,Sr2InSbO6,-2.527751798666666,0.054019149999999,1.0652,False,NM,0.0,225
mp-1520931,Sr2InWO6,-2.519313970666667,0.14685220199999202,0.0,True,FM,0.999999899999999,225
mp-1062620,Sr2Ir,-0.09831995666667101,0.066715622499994,0.0,False,NM,2e-07,225
mp-1518083,Sr2LaBiO6,-2.6602815535,0.146050748,2.2675,False,NM,0.0,225
mp-1080670,Sr2LaCoO6,-2.4582152535,0.17010349866666602,0.0,True,FM,1.9999919,225
mp-1079391,Sr2LaCrO6,-2.7497591514999993,0.23737670431249702,0.0,True,FM,1.0002377,225
mp-1206761,Sr2LaNbO6,-3.274441357500001,0.15954692712499902,2.9823,False,NM,0.0010222,225
mp-1206332,Sr2LaSbO6,-2.950952569499999,0.093805521,3.385799999999999,False,NM,3.94e-05,225
mp-1205692,Sr2LaTaO6,-3.401131761233332,0.136591464875005,3.5116,False,NM,0.0008162,225
mp-1187087,Sr2LiCd,-0.15478260333333202,0.006402878055555001,0.0,False,NM,1.3700000000000003e-05,225
mp-1187085,Sr2LiGa,-0.215302563020832,0.033884204404765,0.0,False,NM,6.120000000000001e-05,225
mp-867208,Sr2LiIn,-0.240165594999999,0.015573939807692002,0.0,False,NM,0.005660099999999,225
mp-1205568,Sr2LiOsO6,-2.442533314333333,0.0,0.0,True,FM,0.9578357,225
mp-862745,Sr2LiPt,-0.40438429726190606,0.11923774220237901,0.0,False,NM,0.00048489999999900006,225
mp-12525,Sr2LiReO6,-2.738560688583334,0.010782035,1.655399999999999,False,NM,0.0006466,225
mp-1187090,Sr2LiRh,-0.040448729166664005,0.09768013143939401,0.12449999999999901,False,NM,9.800000000000001e-06,225
mp-862746,Sr2LiTl,-0.282441951666669,0.0,0.0,False,NM,0.0017668999999990002,225
mp-1205760,Sr2LuNbO6,-3.476122503666667,0.047663285499998,2.8966000000000003,False,NM,0.000247,225
mp-1205553,Sr2LuTaO6,-3.602819626399999,0.0,3.4874,False,NM,6e-07,225
mp-1206223,Sr2LuUO6,-3.638653882666666,0.07068622806249801,0.9942000000000001,True,FM,0.927356899999999,225
mp-1187121,Sr2MgIn,-0.252093635416667,6.554831801386385e-05,0.0,False,NM,6e-07,225
mp-16307,Sr2MgIrO6,-2.473373895500001,0.0,0.0,True,FM,2.5023386,225
mp-1206730,Sr2MgMoO6,-2.8529195255,0.0077938069999980005,2.2149,False,NM,0.00022549999999900002,225
mp-11734,Sr2MgReO6,-2.86334913875,0.004170884999998,0.0,True,FM,0.9988758,225
mp-1187092,Sr2MgTl,-0.241655769583333,0.0,0.0,False,NM,2.4e-06,225
mp-18848,Sr2MgWO6,-2.9759653285,0.009191554999999001,3.2641,False,NM,0.0,225
mp-1078887,Sr2MnNbO6,-2.963928790793105,0.030933103000002002,0.0,True,FM,3.9999946,225
mp-1205767,Sr2MnReO6,-2.630640101043104,0.018463508969048,0.2928,True,FiM,3.9922806,225
mp-548149,Sr2MnSbO6,-2.561689616793104,0.025500289000000002,0.0,True,FM,3.998569599999999,225
mp-1523324,Sr2MnSnO6,-2.507411429293104,0.06091007799999901,0.0,True,FM,3.0003095,225
mp-1519277,Sr2MnWO6,-2.7321225107931033,0.035756986999999005,1.6795,True,FM,5.0,225
mp-1206057,Sr2NbAlO6,-3.366576727999999,0.0,2.8384,False,NM,0.0002328,225
mp-1518803,Sr2NbBiO6,-2.737977272,0.141959425749999,1.763199999999999,False,NM,0.0,225
mp-1218740,Sr2NbCoO6,-2.777619402000001,0.008075351642884001,1.5007000000000001,True,AFM,0.0003928,225
mp-1205690,Sr2NbCrO6,-3.10404197775,0.0,2.2687,True,AFM,0.0,225
mp-1516290,Sr2NbCuO6,-2.6332978970000003,0.056184575999998,0.0,True,FM,1.8270483,225
mp-1218741,Sr2NbFeO6,-2.9239574249999993,0.0,1.7829000000000002,True,AFM,0.0,225
mp-1218739,Sr2NbGaO6,-3.05368934975,0.014333445375006,3.1367,False,NM,8.67e-05,225
mp-1218750,Sr2NbInO6,-2.934638608666666,0.047612209500001,3.4305,False,NM,5.5600000000000017e-05,225
mp-1520756,Sr2NbSbO6,-2.743826389,0.180590807799991,0.8047000000000001,False,NM,0.0,225
mp-1521167,Sr2NbSnO6,-2.8095148845000013,0.158613873312477,0.0,True,FM,1.0,225
mp-1517644,Sr2NbWO6,-2.877325457,0.10221577399999501,0.7211999999999991,True,FM,2.999999899999999,225
mp-1518426,Sr2NdBiO6,-2.65012567375,0.135050304,2.1311,False,NM,0.0,225
mp-1519522,Sr2NdFeO6,-2.5834097287500013,0.12825513237500802,0.23720000000000002,True,FM,3.0,225
mp-1521512,Sr2NdMnO6,-2.712296225543105,0.138686881791661,0.0,True,FiM,1.9999999,225
mp-1207215,Sr2NdNbO6,-3.27874228875,0.131650601375,2.8862,False,NM,0.0001658,225
mp-1516994,Sr2NdSbO6,-2.94617107375,0.053877311249999005,3.3416,False,NM,0.0,225
mp-1205651,Sr2NdUO6,-3.455133693749999,0.16864735962500302,0.515699999999999,True,FM,0.999919799999999,225
mp-1522778,Sr2NdVO6,-3.03149778275,0.182999948374988,1.6477,False,NM,0.0,225
mp-21150,Sr2Ni(NO2)6,0.46401949952380905,1.850869852619046,0.0,False,NM,0.0013212,225
mp-1519550,Sr2NiBiO6,-1.9539047860000012,0.09845425249999801,0.0,True,FM,1.0000042,225
mp-1095155,Sr2NiIrO6,-2.07635261125,0.006143210749999,0.0,True,AFM,0.0003857,225
mp-25053,Sr2NiMoO6,-2.4696039020000002,0.010767923499999001,2.2338,True,FM,2.0240232,225
mp-1078758,Sr2NiRuO6,-2.142298130499999,0.0,0.0,True,FM,8.0151053,225
mp-1205311,Sr2NiTeO6,-2.300039220166665,0.014766794500000001,1.7083,True,AFM,1.0300000000000001e-05,225
mp-19400,Sr2NiWO6,-2.5870743215000003,0.010435388500006,0.0,True,AFM,0.0,225
mp-1187095,Sr2PdAu,-0.6500540649999991,0.041464634624998005,0.0,False,NM,0.0028319,225
mp-1187097,Sr2PdPt,-0.6486533599999991,0.056612417499999006,0.0,False,NM,7.010000000000001e-05,225
mp-1517044,Sr2PrBiO6,-2.624686556166666,0.14252627850000002,2.142899999999999,False,NM,0.0,225
mp-1517407,Sr2PrCoO6,-2.419391496166668,0.17226261847917002,0.0,True,FM,1.9999860999999992,225
mp-1521474,Sr2PrGeO6,-2.780339208666666,0.1900625111875,0.0,False,NM,0.999999899999999,225
mp-1205687,Sr2PrNbO6,-3.249349684166667,0.1479739629375,2.888,False,NM,7.499999999999998e-06,225
mp-1518098,Sr2PrNiO6,-2.322613431166666,0.16625999516071402,0.0,True,FM,0.999999899999999,225
mp-1520081,Sr2PrSbO6,-2.920001476166666,0.058838475749999,3.3198,False,NM,0.0,225
mp-1517092,Sr2PrSnO6,-2.711769451666666,0.186762002203123,0.0,False,NM,1.0000001,225
mp-1207116,Sr2PrTaO6,-3.3771437089000003,0.123914879687502,3.37,False,NM,7.980000000000004e-05,225
mp-1517869,Sr2PrVO6,-3.002961331166667,0.19846715693754402,1.658399999999999,False,NM,0.0,225
mp-862747,Sr2PtAu,-0.798878797499995,0.059337327500003006,0.0,False,NM,0.0042435,225
mp-1063245,Sr2Rh,-0.083595900000001,0.096800251666667,0.0,False,NM,0.001056799999999,225
mp-863251,Sr2SbAu,-0.929826310000001,0.013161637132352001,0.6225,False,NM,0.0,225
mp-1208736,Sr2ScBiO6,-2.792240892499999,0.003185829833333,1.7949000000000002,False,NM,8e-07,225
mp-1205575,Sr2ScOsO6,-2.894027930499999,0.0,0.0,True,FM,2.922758,225
mp-1206178,Sr2ScReO6,-3.06690173575,0.011460405386889002,0.0,True,FM,1.7512956,225
mp-1520599,Sr2SmBiO6,-2.6901447335000013,0.120950500499999,2.1141,False,NM,0.0,225
mp-1522861,Sr2SmCrO6,-2.7940749135000003,0.18956682924999502,0.0,True,FM,1.0000001,225
mp-1518753,Sr2SmFeO6,-2.6231298935,0.108636249062509,0.23290000000000002,True,FM,3.0000005,225
mp-1521945,Sr2SmMnO6,-2.7571004492931053,0.11398393947916201,0.0,True,FiM,2.0000005,225
mp-1516728,Sr2SmNbO6,-3.325890110499999,0.104604061062499,2.8836,False,NM,0.0,225
mp-1521056,Sr2SmSbO6,-2.9887438155,0.069650456,3.4098,False,NM,0.0,225
mp-1206901,Sr2SmUO6,-3.499215577499998,0.144666757312505,0.6715999999999991,True,FM,0.999956499999999,225
mp-1521309,Sr2SmVO6,-3.078556790500001,0.15604222206248802,1.6372,False,NM,0.0,225
mp-1517558,Sr2SmWO6,-2.961165078500001,0.179160710958326,0.0,True,FM,1.0,225
mp-867169,Sr2SnHg,-0.647137641875002,0.0,0.2717,False,NM,0.0,225
mp-1205594,Sr2TaAlO6,-3.485361415733332,0.0,3.577,False,NM,4.2400000000000014e-05,225
mp-1208733,Sr2TaCoO6,-2.889408100983334,0.0028305267498840003,1.5498999999999992,True,AFM,0.0001824,225
mp-31624,Sr2TaCrO6,-3.222110089483332,0.0030246002500000004,2.8066,True,AFM,0.0,225
mp-1218705,Sr2TaFeO6,-3.043208792233334,0.008194262499985,2.0462,True,AFM,0.0,225
mp-1080506,Sr2TaInO6,-3.0576499634,0.041872975499999,4.0244,False,NM,0.0,225
mp-1218683,Sr2TaMnO6,-3.079475903526437,0.02445548799997,0.0,True,FM,4.0000611,225
mp-1218702,Sr2TaVO6,-3.263505526233333,0.008539543499999,0.0,True,AFM,5.7800000000000016e-05,225
mp-1520629,Sr2TbBiO6,-2.746376261666667,0.068139823499999,2.0184,False,NM,0.0,225
mp-1517177,Sr2TbCoO6,-2.545272291666667,0.10960949897916601,0.0,True,FiM,1.9824456,225
mp-1520970,Sr2TbCrO6,-2.858492841666666,0.155206052624994,0.0,True,FM,1.0001343,225
mp-1522066,Sr2TbFeO6,-2.678821566666665,0.08300172743751001,0.22729999999999903,True,FiM,3.0000003,225
mp-1520630,Sr2TbGeO6,-2.917450849166666,0.11617854668750201,0.0,False,NM,0.999999499999999,225
mp-1523060,Sr2TbHfO6,-3.393937694666667,0.146024258437499,0.0,False,NM,1.00009,225
mp-1516644,Sr2TbNbO6,-3.392388725666666,0.068162597437499,2.8842,False,NM,0.0,225
mp-1521426,Sr2TbNiO6,-2.447216226666667,0.10267857081249301,0.0,False,NM,0.030680899999999,225
mp-13937,Sr2TbReO6,-2.9914924659166653,0.08864850085417801,0.0,True,FM,1.9989962000000001,225