material_id,formula,formation_energy,ehull,band_gap,is_magnetic,magnetic_ordering,total_magnetization,spacegroup
mp-1187439,ThCdPd2,-0.649803167499998,0.023330441666663003,0.0,False,NM,0.0006269,225
mp-861644,ThCdPt2,-0.837553319999997,0.087556391250004,0.0,False,NM,0.0003201,225
mp-861646,ThCdRh2,-0.6453965649999981,0.0,0.0,False,NM,8e-07,225
mp-862875,ThGaAu2,-0.600490434374995,0.016526535955887,0.0,False,NM,5e-07,225
mp-1093,ThGe,-0.9144355199999901,0.0,0.0,False,NM,5.2e-06,225
mp-1008734,ThH2,-0.5545055925000021,0.009469673333327001,0.0,False,NM,0.0026463,225
mp-862932,ThInAg2,-0.218022792499997,0.0,0.0,False,NM,2.4e-05,225
mp-622041,ThInAu2,-0.642016716666663,0.0,0.0,False,NM,3e-06,225
mp-1187455,ThInCu2,-0.24693180916666702,0.0,0.0,False,NM,0.00017979999999900002,225
mp-1100770,ThInRh2,-0.729808437499997,0.03487445666667,0.0,False,NM,0.0008085999999990001,225
mp-1187726,ThInRu2,-0.335774739999997,0.016900186666674002,0.0,False,NM,3.66e-05,225
mp-1187438,ThMgAu2,-0.6667310187499951,0.0,0.0,False,NM,2e-06,225
mp-1187426,ThMgHg2,-0.292746047499999,0.0,0.0,False,NM,7.599999999999997e-06,225
mp-1187456,ThMgRh2,-0.6981163787499991,0.004339288750000001,0.0,False,NM,2.9900000000000005e-05,225
mp-977352,ThMgZn2,-0.211637226249998,0.0016726212500010002,0.0,False,NM,8.2e-06,225
mp-834,ThN,-1.771323434374998,0.0,0.0,False,NM,2e-06,225
mp-1072204,ThN2,-0.836851952777777,0.6288663844444461,0.0,True,FM,1.7094589,225
mp-22786,ThNiSn,-0.6893862349999951,0.0,0.2675,False,NM,0.0,216
mp-672375,ThNiSn,0.320723198333335,1.010109433333331,0.0,False,NM,0.0006129,216
mp-1206987,ThO,-2.992862922499998,0.282979707499999,0.0,False,NM,0.0018219999999990002,225
mp-643,ThO2,-4.36779017333333,0.0,4.4187,False,NM,0.0,225
mp-931,ThP,-1.731013593988088,0.0,0.0,False,NM,0.0,225
mp-1187445,ThPaTc2,-0.06541468937498901,0.036571312500001,0.0,False,NM,0.0013674,225
mp-867418,ThPbAu2,-0.541775084999997,0.0022894425,0.0,False,NM,0.00016779999999900003,225
mp-503,ThS,-2.02748447640625,0.0,0.0,False,NM,2.39e-05,225
mp-1751,ThSb,-1.082992919999995,0.0,0.0,False,NM,1.22e-05,225
mp-10623,ThSbRh,-1.1780022699999981,0.0,0.7438,False,NM,2.7e-06,216
mp-865568,ThScTc2,-0.198044058749999,0.030731616875002,0.0,False,NM,0.0006184,225
mp-2183,ThSe,-1.722145739531242,0.0,0.0,False,NM,2.2e-06,225
mp-866174,ThSnAu2,-0.642506598749999,0.0,0.0,False,NM,1.5900000000000004e-05,225
mp-865677,ThSnPd2,-0.7935173599999951,0.002181428625007,0.0,False,NM,1.899999999999999e-06,225
mp-19886,ThSnPt,-1.192033330000005,0.0,0.6738000000000001,False,NM,0.0,216
mp-865944,ThSnRu2,-0.40484929750000004,0.0015044939583430002,0.0,False,NM,2.75e-05,225
mp-1187476,ThTc3,0.272597996874999,0.37458399874999704,0.0,True,FM,0.994448999999999,225
mp-1187441,ThTi3,0.15701509999999802,0.15701509999999802,0.0,False,NM,0.0063545,225
mp-1187435,ThZnAu2,-0.550543714999999,0.014972824130430001,0.0,False,NM,2.6e-06,225
mp-865761,ThZnRh2,-0.6905303687499961,0.031342923333333,0.0,False,NM,2e-07,225
mp-6985,Ti,0.08726523333333301,0.08726523333333301,0.0,False,NM,0.0013812,225
mp-726709,Ti(NCl3)2,0.292109440370367,1.2506432922222261,0.0,True,FiM,4.0053938,225
mp-1080110,Ti(NF2)3,-0.372575645833333,1.570210710000002,0.0,True,FiM,4.3300309,225
mp-1193707,Ti2(Co7B2)3,-0.277345332471269,0.0,0.0,True,FiM,19.1714606,225
mp-1193180,Ti2(Ni7B2)3,-0.36438618281609003,0.0,0.0,False,NM,0.00021349999999900003,225
mp-1208329,Ti20(CoB2)3,-0.20766288109195402,0.22245758468390603,0.0,True,FiM,12.0788725,225
mp-1008753,Ti2Al,0.5471105313888901,0.8942426866666661,0.0,True,FM,2.995354899999999,216
mp-1064228,Ti2AlCo,-0.25458134733333304,0.196185725374999,0.0,True,FiM,2.0004377,216
mp-999096,Ti2AlCr,-0.131580482083332,0.128768634374999,0.0,True,FiM,0.851428299999999,216
mp-999079,Ti2AlCu,-0.081409876458332,0.23511865374999902,0.0,True,FM,3.7580484,216
mp-999069,Ti2AlFe,-0.23221631416666602,0.18167102749999903,0.0,True,FiM,1.000035,216
mp-861627,Ti2AlMo,-0.34524999583333305,0.0,0.0,False,NM,0.0004613,225
mp-1018016,Ti2AlNi,-0.26444480666666603,0.18666822124999902,0.0,True,FM,2.996793,216
mp-1187453,Ti2AlNi,-0.270910676666666,0.180202351249999,0.0,True,FM,1.2945978,225
mp-861640,Ti2AlRe,-0.510066803958334,0.0,0.0,False,NM,3.399999999999998e-06,225
mp-861637,Ti2AlTc,-0.513734560833331,0.0,0.0,False,NM,0.0,225
mp-999068,Ti2AlV,-0.12454579145833401,0.135803324999997,0.0,True,FiM,1.9162877999999992,216
mp-1187418,Ti2AlW,-0.262540418333333,0.022477261249996,0.0,False,NM,0.00042639999999900005,225
mp-999072,Ti2AlZn,-0.014344134166666002,0.28559379499999904,0.0,True,FM,3.2501317,216
mp-571126,Ti2BRh6,-0.674148221759258,0.0,0.0,False,NM,2.499999999999999e-06,225
mp-1187423,Ti2BeTc,-0.30551932666666604,0.015432476458332001,0.0,False,NM,9.400000000000001e-05,225
mp-999067,Ti2CoGe,-0.26958866541666704,0.30142624624999703,0.0,True,FM,3.0051304,216
mp-861639,Ti2CoIr,-0.6511540691666671,0.0,0.0,True,FM,1.6968244000000001,225
mp-1187432,Ti2CoMo,-0.194178945833332,0.054202860555555,0.0,True,FM,0.127917199999999,225
mp-1187422,Ti2CoOs,-0.623635615833336,0.0,0.0,True,FM,0.952878799999999,225
mp-861641,Ti2CoRe,-0.450526278958335,0.0,0.0,True,FiM,0.287217599999999,225
mp-999060,Ti2CoSi,-0.36183575852083605,0.30791952324999805,0.0,True,FM,3.000764,216
mp-862911,Ti2CoTc,-0.501579003333329,0.0,0.0,True,FiM,0.2539669,225
mp-861656,Ti2CrIr,-0.561369319166665,0.0,0.0,True,FiM,0.8385937,225
mp-1187431,Ti2CuIr,-0.501317696666665,0.009366687031251,0.0,False,NM,4.1900000000000016e-05,225
mp-1187436,Ti2CuRe,-0.306539218958334,0.034955893749998,0.0,False,NM,7.21e-05,225
mp-972217,Ti2CuTc,-0.33271794583333203,0.0023558287499980003,0.0,False,NM,1.5200000000000002e-05,225
mp-1187429,Ti2FeCo,-0.399876224166667,0.004524152500000001,0.0,True,FiM,0.9904833,225
mp-861672,Ti2FeIr,-0.667715469166665,0.0,0.0,True,FiM,0.8759903,225
mp-1187427,Ti2FeOs,-0.564715619166667,0.0,0.0,False,NM,0.0001595,225
mp-1187428,Ti2FeRu,-0.575021109166666,0.016949789999999,0.0,False,NM,9.3e-06,225
mp-1094030,Ti2FeSi,-0.34800795166666604,0.2976170521875,0.0,True,FiM,2.0019896,216
mp-1187434,Ti2FeTc,-0.44970936791666605,0.0089890075,0.0,True,FiM,0.48346019999999906,225
mp-1008726,Ti2Ga,0.42459953527777705,0.827383216666667,0.0,True,FM,3.0415273,216
mp-999054,Ti2GaCo,-0.264302466041667,0.174314089687499,0.0,True,FiM,1.9995973,216
mp-999059,Ti2GaFe,-0.238037986041667,0.2081949475,0.0,True,FiM,0.994065099999999,216
mp-999053,Ti2GaNi,-0.265005343541666,0.19098405750000003,0.0,True,FM,3.0029911,216
mp-1187443,Ti2GaRe,-0.42145048916666805,0.012440014999999001,0.0,False,NM,0.0001919,225
mp-1187419,Ti2GaTc,-0.46593665979166704,0.018164497499999002,0.0,False,NM,1.7100000000000002e-05,225
mp-1008727,Ti2Ge,0.189333750370371,0.848759955740739,0.0,True,FM,3.9078868,216
mp-1008702,Ti2In,0.5385968455555551,0.668410804999999,0.0,True,FM,3.019942,216
mp-1018043,Ti2InCo,-0.071759558333333,0.19188208749999902,0.0,True,FM,1.9997467,225
mp-999046,Ti2InCo,-0.052417220833334006,0.21122442499999902,0.0,True,FiM,1.998733399999999,216
mp-1018070,Ti2InFe,0.039998431666665,0.32006985249999903,0.0,True,FiM,0.6612241,216
mp-1018013,Ti2InNi,-0.07275007833333201,0.229396718749998,0.0,True,FM,1.0503877,225
mp-999076,Ti2InNi,-0.095342695833332,0.206804101249998,0.0,True,FM,3.0023676,216
mp-972328,Ti2IrRh,-0.785546999166668,0.013949064999998002,0.0,False,NM,5.3300000000000015e-05,225
mp-1187430,Ti2IrRu,-0.794050424166666,0.016315399999999,0.0,False,NM,0.0027329,225
mp-972337,Ti2IrW,-0.5145119691666691,0.0,0.0,False,NM,1.7100000000000002e-05,225
mp-999052,Ti2MnAl,-0.250023836149425,0.076759216649999,0.05109999999999901,True,FiM,0.000174,216
mp-861958,Ti2MnBe,-0.203390732399426,0.0,0.0,False,NM,0.0,225
mp-863690,Ti2MnCo,-0.378944631149426,0.0,0.0,True,FiM,0.1931028,225
mp-861983,Ti2MnFe,-0.33844832864942703,0.0,0.0,True,FiM,2.1694268,225
mp-1064731,Ti2MnGa,-0.265266170524426,0.10857628749999901,0.052500000000000005,True,FiM,0.0005734,216
mp-1018015,Ti2MnGe,-0.24415239989942603,0.294413374553572,0.0,True,FM,0.1136331,216
mp-1018041,Ti2MnIn,-0.051165427816092006,0.140179595550001,0.0137,True,FiM,0.0011558,216
mp-865569,Ti2MnIr,-0.702065421149425,0.0,0.0,False,NM,0.0,225
mp-865712,Ti2MnNi,-0.33839350364942505,0.0,0.0,True,FM,1.0200602,225
mp-865768,Ti2MnOs,-0.504274896149425,0.0,0.0,True,FiM,0.7016793,225
mp-972396,Ti2MnRe,-0.298680711774427,0.022898578449995002,0.0,True,FiM,1.4459491,225
mp-866218,Ti2MnRh,-0.572736533649425,0.0,0.0,False,NM,1.62e-05,225
mp-865469,Ti2MnRu,-0.504777263649424,0.0,0.0,True,FiM,0.7026108,225
mp-999047,Ti2MnSi,-0.33391479614942504,0.24447294437500303,0.0,True,FM,0.026573299999999002,216
mp-999083,Ti2MnSn,-0.144651599899425,0.179744865133929,0.0,True,FiM,1.049192,216
mp-1187433,Ti2MnTc,-0.35536476239942605,0.010174555616666001,0.0,True,FiM,1.7444215,225
mp-865807,Ti2MoIr,-0.6356605766666661,0.0,0.0,False,NM,1.4700000000000002e-05,225
mp-1187420,Ti2MoOs,-0.446474903333331,0.021620270000003,0.0,False,NM,8e-07,225
mp-1187417,Ti2MoPd,-0.395192630833332,0.0,0.0,False,NM,1.8e-06,225
mp-865803,Ti2MoPt,-0.697750280833332,0.0,0.0,False,NM,5e-07,225
mp-865529,Ti2NiIr,-0.6409541466666661,0.0,0.0,False,NM,2.8900000000000005e-05,225
mp-865591,Ti2NiMo,-0.285534419166667,0.0,0.0,False,NM,5.6300000000000006e-05,225
mp-1187424,Ti2OsRh,-0.7089899566666661,0.015226427499998002,0.0,False,NM,0.0009739,225
mp-865842,Ti2OsRu,-0.8354517870833361,0.0,0.0,False,NM,2e-07,225
mp-865717,Ti2ReIr,-0.7583951897916651,0.0,0.0,False,NM,4.0300000000000004e-05,225
mp-865728,Ti2ReNi,-0.42686366229166706,0.0,0.0,True,FM,0.802765499999999,225
mp-865533,Ti2ReOs,-0.6421273164583351,0.0035615131250560004,0.0,False,NM,1.86e-05,225
mp-865538,Ti2RePd,-0.5250984064583331,0.0,0.0,False,NM,2.1e-06,225
mp-865877,Ti2RePt,-0.7411143114583321,0.069125050000003,0.0,False,NM,0.0005296,225
mp-865948,Ti2ReRh,-0.6564465847916661,0.0,0.0,False,NM,5e-07,225
mp-972275,Ti2ReRu,-0.6359912952083341,0.008236759999999,0.0,False,NM,0.00046879999999900005,225
mp-972241,Ti2ReTc,-0.48592693145833304,0.0,0.0,False,NM,2.3800000000000003e-05,225
mp-1187444,Ti2RuRh,-0.7358315641666661,0.0164103225,0.0,False,NM,2.8300000000000003e-05,225
mp-1008689,Ti2Si,0.265850752037036,0.9676537746296301,0.0,True,FM,3.8233194999999993,216
mp-1008688,Ti2Sn,0.235037845555559,0.601374775000003,0.0,True,FM,3.9043225,216
mp-865840,Ti2TcIr,-0.8466084554166671,0.0,0.0,False,NM,1.7000000000000003e-05,225
mp-865878,Ti2TcNi,-0.47977720041666605,0.0,0.0,False,NM,0.003181,225
mp-865876,Ti2TcOs,-0.7029357108333331,0.0,0.0,False,NM,7.650000000000003e-05,225
mp-865931,Ti2TcPd,-0.565572565833331,0.0,0.0,False,NM,2.44e-05,225
mp-865928,Ti2TcPt,-0.8098699183333301,0.0,0.0,False,NM,6.0400000000000004e-05,225
mp-865649,Ti2TcRh,-0.733145390416666,0.0,0.0,False,NM,2.4e-06,225
mp-865650,Ti2TcRu,-0.695527502083333,0.0,0.0,False,NM,3.55e-05,225
mp-972238,Ti2VIr,-0.5512849641666651,0.0,0.0,True,FM,1.8804695999999992,225
mp-1187461,Ti2VOs,-0.49700734583333106,0.0,0.0,True,FM,5.6332112,225
mp-866183,Ti2ZnRe,-0.31400189229166703,0.0,0.0,False,NM,0.0001907,225
mp-866187,Ti2ZnTc,-0.34634031791666103,0.0,0.0,False,NM,6.7e-06,225
mp-1193476,Ti3(Co10B3)2,-0.32513783293103804,0.0024834134482700004,0.0,True,FiM,15.127042,225
mp-1193912,Ti3(Ni10B3)2,-0.42577401775862506,0.0,0.0,False,NM,4.9000000000000005e-06,225
mp-999027,Ti3Al,-0.17853670874999802,0.11868281749999901,0.0,True,FM,1.976297999999999,225
mp-998988,Ti3Ga,-0.19212561687500002,0.12925891749999902,0.0,True,FM,1.7340149,225
mp-998987,Ti3Ge,-0.30229709805555405,0.192272555972222,0.0,True,FM,1.6881304,225
mp-998979,Ti3In,-0.029837814166666,0.09522677999999901,0.0,True,FM,1.983287499999999,225
mp-865899,Ti3Os,-0.440499652499998,0.0,0.0,True,FiM,2.7904051,225
mp-998986,Ti3Si,-0.332359741805554,0.193992525138888,0.0,True,FM,1.702169099999999,225
mp-998982,Ti3Sn,-0.213547178750001,0.1055072875,0.0,True,FM,1.8176856,225
mp-1217247,Ti4CoNi,-0.287449128888891,0.0,0.0,True,FiM,3.3584395,216
mp-1217206,Ti4Cu2O,-0.8511176311904771,0.12287100714285601,0.0,False,NM,0.7563961,216
mp-1217190,Ti4Fe2O,-0.39476445190476,0.718093777857141,0.0,True,FiM,13.9904657,216
mp-1217277,Ti4FeNi,-0.263262120138888,0.015678900277777002,0.0,False,NM,0.138835799999999,216
mp-1104320,Ti4GaS8,-1.546356299294871,0.004524247884607,0.0,True,FM,2.5995113,216
mp-1217173,Ti4Mn2O,-0.5032554830993441,0.51104239984286,0.0,True,FiM,24.4483618,216
mp-1217223,Ti4Ni2O,-0.347091537261904,0.7514951924999991,0.0,False,NM,0.0133726,216
mp-1192877,Ti6Al16Co7,-0.515703900775857,0.008310763879309001,0.0,True,FM,2.922936,225
mp-1208277,Ti6Al16Fe7,-0.37604262551724105,0.032533209094828,0.0,True,FiM,5.9490566,225
mp-1193121,Ti6Al16Ir7,-0.761984236206896,0.0,0.0,False,NM,0.1097944,225
mp-865235,Ti6Al16Ni7,-0.5638814393103441,0.0,0.0,False,NM,9e-07,225
mp-1192680,Ti6Al16Os7,-0.5721906540517231,0.07253532340516901,0.0,False,NM,0.8734404,225
mp-1194178,Ti6Al16Pd7,-0.6708122936206871,0.020043311293104,0.0,False,NM,0.001462599999999,225
mp-978976,Ti6Al16Pt7,-0.8932724372413781,0.004601559203859001,0.0,False,NM,1e-07,225
mp-1194450,Ti6Al16Rh7,-0.7392818303448281,0.022590278620685002,0.0,False,NM,1.0493661,225
mp-1193118,Ti6Al16Ru7,-0.6033621586206861,0.081440361149423,0.0,True,FM,1.7172559,225
mp-1208242,Ti6Be15Cu8,-0.227755846379309,0.0,0.0,False,NM,7.599999999999997e-06,225
mp-1208302,Ti6Co16Ge7,-0.370801112931035,0.057023756120689,0.0,False,NM,0.004233499999999,225
mp-672677,Ti6Co16Si7,-0.509692878448277,0.097954313189651,0.0,False,NM,0.0107195,225
mp-1194136,Ti6Ga16Co7,-0.36999305931034504,0.043132956268473,0.0,True,FM,1.294618,225
mp-1193995,Ti6Ga16Ir7,-0.496652149310345,0.0233197440047,0.0,False,NM,0.0018862,225
mp-1194458,Ti6Ga16Ni7,-0.42013131068965504,0.037770524982756,0.0,False,NM,0.0361373,225
mp-1194441,Ti6Ga16Os7,-0.23034985931034502,0.187364179534482,0.0,False,NM,0.008613299999999,225
mp-1193532,Ti6Ga16Pt7,-0.5403571293103441,0.08236950781609301,0.0,False,NM,0.0304987,225
mp-1193834,Ti6Ga16Rh7,-0.547499290344828,0.043440030803288,0.0,False,NM,1.0002603,225
mp-1194115,Ti6Ga16Ru7,-0.37194769103448305,0.11794478187931201,0.0,False,NM,0.018646299999999002,225
mp-582759,Ti6Ni16Ge7,-0.49148484465517106,0.019529786482759,0.0,False,NM,0.011433599999999001,225
mp-3337,Ti6Si7Ni16,-0.686153449999999,0.0,0.0,False,NM,2.1e-06,225
mp-16482,TiAlAu2,-0.47678674416666605,0.028322346666666002,0.0,False,NM,6e-06,225
mp-5407,TiAlCo2,-0.6043146191666661,0.0,0.0,True,FiM,1.0003066,225
mp-4771,TiAlCu2,-0.335837534166666,0.0,0.0,False,NM,2e-07,225
mp-31187,TiAlFe2,-0.45416650083333204,0.0,0.0,True,FiM,0.973423199999999,225
mp-998980,TiAlFeCo,-0.574893555833333,0.0,0.12460000000000002,False,NM,4.9000000000000005e-06,216
mp-1187464,TiAlIr2,-0.907798535833331,0.000500310000003,0.0,True,FM,0.9783731,225
mp-7187,TiAlNi2,-0.623069183333332,0.0,0.0,False,NM,7.21e-05,225
mp-865442,TiAlOs2,-0.695056386666667,0.002101471153842,0.0,False,NM,2.03e-05,225
mp-865441,TiAlPd2,-0.7750691391666641,0.0,0.0,False,NM,0.000304099999999,225
mp-866153,TiAlRh2,-0.983009850833333,0.0,0.0,False,NM,4e-07,225
mp-866155,TiAlRu2,-0.830631444166666,0.0,0.0,False,NM,3e-07,225
mp-961718,TiAsRh,-0.42897138694444403,0.443658255833334,0.0,False,NM,0.0009155,216
mp-1100442,TiAuBr,0.253401070555555,1.211767545555555,0.0,False,NM,0.0002017,216
mp-962077,TiAuCl,0.144590312638882,1.232790341111115,0.0,False,NM,0.0004964,216
mp-10143,TiB,0.675268715416667,1.552782301249999,0.0,False,NM,0.0071934,216
mp-1245924,TiB12,-0.103710172564101,0.15003629602564,0.0,False,NM,0.0013905,225
mp-866139,TiBe2Ir,-0.5618180808333341,0.0,0.0,False,NM,0.0,225
mp-1187463,TiBe2Pt,-0.575025725833334,0.015290991499997,0.0,False,NM,0.2113319,225
mp-1217010,TiBe4Nb,-0.168036743888888,0.03760362597222,0.0,True,FM,1.129111599999999,216
mp-866152,TiBeCo2,-0.422010977083334,0.0,0.0,False,NM,2.4e-06,225
mp-866154,TiBeIr2,-0.8116055345833341,0.0,0.0,False,NM,3e-07,225
mp-866143,TiBeRh2,-0.791811782083327,0.0,0.0,False,NM,1.22e-05,225
mp-961722,TiBiRh,-0.031065807777778003,0.46318227666666806,0.0,False,NM,0.0021789,216
mp-631,TiC,-0.965351713333333,0.0,0.0,False,NM,1e-07,225
mp-4612,TiCo2Ge,-0.499881817083333,0.0,0.0,True,FiM,2.0001207,225
mp-3657,TiCo2Si,-0.6928583329166661,0.0,0.0,True,FM,2.000001,225
mp-21467,TiCo2Sn,-0.371400094583333,0.0,0.0,True,FiM,2.0005216,225
mp-961700,TiCoAs,-0.23487453222222102,0.46770136500000103,0.0,True,FiM,0.934520399999999,216
mp-1216950,TiCoNiSn,-0.36165156958333305,0.05811619933035501,0.0,True,FM,0.6061244,216
mp-5967,TiCoSb,-0.658718782222221,0.0,1.043199999999999,False,NM,0.0,216
mp-1216949,TiCoSn,-0.316109056111111,0.069511311319444,0.0,True,FM,0.976952399999999,216
mp-20453,TiCoSn,0.307187757222222,0.6928081246527791,0.0,True,FM,1.0533154,216
mp-631575,TiCrAg,0.8785086724999991,0.914861944722224,0.0,True,FM,3.152066699999999,216
mp-1187470,TiCrTc2,-0.22197038666666502,0.037379602499999005,0.0,True,FM,0.043851999999999,225
mp-1207191,TiCu2Sb,0.087509524761905,0.36447802142857105,0.0,True,FM,0.9422967,225
mp-1206917,TiCu2Sn,-0.067168944401041,0.11485032296875002,0.0,False,NM,0.0316617,225
mp-1100413,TiCuB,-0.237408117743055,0.37234697447916604,0.17930000000000001,False,NM,0.0004163,216
mp-11882,TiCuHg2,0.17923134067708402,0.251147664999997,0.0,False,NM,0.0040013,216
mp-282,TiF2,-3.013348831111111,0.24846837740740702,0.436399999999999,True,FM,2.0000162,225
mp-999002,TiFe2As,-0.329577977708333,0.17247486750000202,0.0,True,FiM,1.0051516,225
mp-866375,TiFe2Ge,-0.479640722083333,0.0,0.17089999999999902,False,NM,0.0,225
mp-998970,TiFe2Sb,-0.296498755833333,0.027202134999995003,0.0,True,FiM,1.0039343,225
mp-866141,TiFe2Si,-0.6748571133333341,0.0,0.401599999999998,False,NM,0.0,225
mp-19963,TiFe2Sn,-0.269572492083334,0.0,0.04870000000000001,False,NM,4.85e-05,225
mp-998974,TiFeCoAs,-0.36153024520833305,0.14052260000000102,0.0,True,FM,2.0015318,216
mp-1018012,TiFeCoGe,-0.46164263208333306,0.028118637499999002,0.0,True,FM,1.0033117,216
mp-998973,TiFeCoSb,-0.35177621333333303,0.18582680249999903,0.0,True,FM,2.0042184,216
mp-998971,TiFeCoSi,-0.631628308333333,0.029189958749999002,0.0,True,FM,1.0028496,216
mp-10755,TiFeSb,-0.431601187777778,0.0,0.0,True,FiM,0.9880355999999991,216
mp-961660,TiFeSe,-0.740190481892361,0.19599215250000102,0.860599999999999,False,NM,0.00017539999999900002,216
mp-22589,TiFeSn,0.40751253388888903,0.7100512963333321,0.0,True,FiM,1.4770855,216
mp-961673,TiFeTe,-0.650884536666657,0.0,0.9852000000000001,False,NM,0.0,216
mp-20145,TiGaCo2,-0.515181305208333,0.0,0.0,True,FiM,1.0139966,225
mp-1187459,TiGaCu2,-0.23654066770833201,0.0,0.0,False,NM,1e-06,225
mp-636320,TiGaFe2,-0.36047026270833205,0.0,0.0,True,FiM,0.9416348,225
mp-998964,TiGaFeCo,-0.47178935270833305,0.0,0.0,False,NM,2.8e-06,216
mp-866142,TiGaIr2,-0.6825293677083321,0.00010071450000200001,0.0,True,FM,1.0014568,225
mp-30657,TiGaNi2,-0.5410241252083321,0.0,0.0,False,NM,1.4100000000000002e-05,225
mp-866140,TiGaPd2,-0.6581097702083271,0.0,0.0,False,NM,4.43e-05,225
mp-567679,TiGaRh,-0.16754120694444402,0.5522633249999961,0.0,False,NM,0.0002503,216
mp-866157,TiGaRh2,-0.843888940208326,0.0,0.0,False,NM,3e-07,225
mp-865448,TiGaRu2,-0.620254325208332,0.0,0.0,False,NM,1.48e-05,225
mp-1187473,TiGaTc2,-0.279868680208333,0.014973979999998001,0.0,False,NM,3.97e-05,225
mp-1008680,TiGePt,-0.9806829755555521,0.0,0.8822000000000001,False,NM,0.0,216
mp-961671,TiGePt,-0.5181297755555551,0.46255319999999805,0.0,False,NM,0.0002069,216
mp-1187497,TiGeRh2,-0.661962002083333,0.045937554999996,0.0,False,NM,0.0467053,225
mp-865640,TiGeRu2,-0.764102924166667,0.0,0.0,False,NM,6e-07,225
mp-1060435,TiH,-0.35665482270833204,0.053561411250001,0.0,False,NM,0.0,225
mp-24161,TiH2,-0.529519081388888,0.004339413333332,0.0,False,NM,0.0009527,225
mp-621348,TiInAu2,-0.28474494249999904,0.064867727500001,0.0,False,NM,0.0040923,225
mp-865548,TiInCo2,-0.22475766500000002,0.0,0.0,True,FiM,1.1831027,225
mp-22725,TiInCu2,-0.107351714999998,0.0,0.0,False,NM,7.05e-05,225
mp-998965,TiInFe2,-0.037745229999999005,0.17479369833333303,0.0,True,FiM,0.9719777,225
mp-22463,TiInNi2,-0.335994847499999,0.032136004999996005,0.0,False,NM,1.6400000000000002e-05,225