material_id,formula,formation_energy,ehull,band_gap,is_magnetic_x,magnetic_ordering,total_magnetization_x,spacegroup,heusler_type,is_magnetic_y,total_magnetization_y
mp-978538,SmSnPd2,-0.822551235,0.002301257812498,0.0,False,NM,6.5e-06,225,full,False,6.5e-06
mp-972520,SmSnRh2,-0.701018387500001,1.668437496604724e-06,0.0,False,NM,0.0203221,225,full,False,0.0203221
mp-867876,SmTlAg2,-0.246433632916667,0.015820380723042,0.0,False,NM,1.1e-06,225,full,False,1.1e-06
mp-972542,SmTlAu2,-0.5651232795833361,0.0,0.0,False,NM,7.9e-06,225,full,False,7.9e-06
mp-978529,SmTmHg2,-0.562760513749999,0.0,0.0,False,NM,2.4e-05,225,full,False,2.4e-05
mp-1187031,SmTmIn2,-0.578292727499999,0.012957162749994,0.0,False,NM,1.9900000000000003e-05,225,full,False,1.9900000000000003e-05
mp-978512,SmTmMg2,-0.063507713750002,0.0,0.0,False,NM,1.21e-05,225,full,False,1.21e-05
mp-972510,SmTmRh2,-0.8282807412500031,0.024631377499996,0.0,False,NM,1.65e-05,225,full,False,1.65e-05
mp-978539,SmTmRu2,-0.281347411250001,0.060643189,0.0,False,NM,2.299999999999998e-06,225,full,False,2.299999999999998e-06
mp-972541,SmTmTl2,-0.327814080416672,0.0,0.0,False,NM,0.0004346,225,full,False,0.0004346
mp-972522,SmTmZn2,-0.333783808750002,0.008225664999997,0.0,True,FM,0.2115983,225,full,True,0.2115983
mp-972528,SmYAg2,-0.311242124999999,0.003684885000001,0.0,False,NM,1.6e-06,225,full,False,1.6e-06
mp-978515,SmYAl2,-0.426906162499999,0.042123012187502,0.0,False,NM,2.499999999999999e-06,225,full,False,2.499999999999999e-06
mp-1187026,SmYHg2,-0.578897393749997,0.0,0.0,False,NM,0.000177699999999,225,full,False,0.000177699999999
mp-978833,SmYIn2,-0.6126495375000011,0.001436495,0.0,False,NM,2.1800000000000005e-05,225,full,False,2.1800000000000005e-05
mp-978522,SmYIr2,-0.7126894312500001,0.043052806249997,0.0,False,NM,0.0001493,225,full,False,0.0001493
mp-867861,SmYMg2,-0.080802886249999,0.0,0.0,False,NM,5.62e-05,225,full,False,5.62e-05
mp-1187042,SmYRh2,-0.7672408662499991,0.012254405,0.0,False,NM,0.000116099999999,225,full,False,0.000116099999999
mp-978564,SmYTl2,-0.364720410416667,0.0,0.0,False,NM,0.0004886,225,full,False,0.0004886
mp-972540,SmYZn2,-0.334118598749999,0.003475099999999,0.0,False,NM,0.036249199999999,225,full,False,0.036249199999999
mp-867140,SmZn2Ag,-0.296511144166666,0.025751989264706,0.0,False,NM,3e-07,225,full,False,3e-07
mp-978521,SmZn2Cd,-0.321592118749999,0.00629619458333,0.0,False,NM,1e-07,225,full,False,1e-07
mp-978560,SmZnAg2,-0.218598347083332,0.068371791029413,0.0,False,NM,0.0331421,225,full,False,0.0331421
mp-867860,SmZnAu2,-0.6066496987500001,0.0,0.0,False,NM,4.7e-06,225,full,False,4.7e-06
mp-631557,Sn2BSe,0.8336005475580911,1.061035165833331,0.0,False,NM,0.0121313,225,full,False,0.0121313
mp-631308,SnIrSe2,0.454572592187489,0.958795184062498,0.0,False,NM,0.012131399999999,216,full,False,0.012131399999999
mp-631946,SnOs2Ru,0.604863694077387,0.669797796785715,0.0,True,FM,1.8679682,216,full,True,1.8679682
mp-631387,SnRuW,0.6243340659523731,0.714231097777776,0.0,False,NM,0.000117899999999,216,half,False,0.000117899999999
mp-867163,Sr2AgPt,-0.53065463979167,0.066738841249996,0.0,False,NM,0.000185399999999,225,full,False,0.000185399999999
mp-863258,Sr2AsAu,-1.117750643652254,0.006150627895831,0.500799999999999,False,NM,0.000116,225,full,False,0.000116
mp-867193,Sr2BiAu,-0.954974773750002,0.036835871666667,0.3936,False,NM,0.0,225,full,False,0.0
mp-1187134,Sr2CaEu,0.031589899166664,0.031589899166664,0.0,True,FM,7.7400411,225,full,True,7.7400411
mp-1187072,Sr2CdGa,-0.337521924374999,0.021435529305556,0.0,False,NM,0.0107051,225,full,False,0.0107051
mp-1187079,Sr2CdHg,-0.406185550625001,0.00886752,0.0,False,NM,3e-07,225,full,False,3e-07
mp-862720,Sr2CdIn,-0.379173486666666,0.0,0.0,False,NM,0.0003454,225,full,False,0.0003454
mp-862721,Sr2CdPb,-0.483913509999998,0.0,0.0,False,NM,0.0,225,full,False,0.0
mp-867149,Sr2CdSn,-0.5273631212499991,0.0,0.0,False,NM,4.1e-06,225,full,False,4.1e-06
mp-1187070,Sr2CuPt,-0.396272736341661,0.121466685674999,0.0,False,NM,6.620000000000001e-05,225,full,False,6.620000000000001e-05
mp-1187068,Sr2GaHg,-0.450507717500001,0.019191001805556,0.0,False,NM,0.004001999999999,225,full,False,0.004001999999999
mp-1187086,Sr2HgGe,-0.557889294375002,0.014731738749999,0.045399999999999,False,NM,0.0,225,full,False,0.0
mp-867207,Sr2HgPb,-0.597141415625003,0.0,0.120499999999999,False,NM,0.0,225,full,False,0.0
mp-1187240,Sr2InHg,-0.479376847291668,0.0,0.0,False,NM,0.000821599999999,225,full,False,0.000821599999999
mp-1187087,Sr2LiCd,-0.154782603333332,0.006402878055555,0.0,False,NM,1.3700000000000004e-05,225,full,False,1.3700000000000004e-05
mp-1187085,Sr2LiGa,-0.215302563020832,0.033884204404765,0.0,False,NM,6.120000000000001e-05,225,full,False,6.120000000000001e-05
mp-867208,Sr2LiIn,-0.240165594999999,0.015573939807692,0.0,False,NM,0.005660099999999,225,full,False,0.005660099999999
mp-862745,Sr2LiPt,-0.404384297261906,0.119237742202379,0.0,False,NM,0.000484899999999,225,full,False,0.000484899999999
mp-1187090,Sr2LiRh,-0.040448729166664,0.097680131439394,0.124499999999999,False,NM,9.8e-06,225,full,False,9.8e-06
mp-862746,Sr2LiTl,-0.282441951666669,0.0,0.0,False,NM,0.001766899999999,225,full,False,0.001766899999999
mp-1187121,Sr2MgIn,-0.252093635416667,6.554831801386385e-05,0.0,False,NM,6e-07,225,full,False,6e-07
mp-1187092,Sr2MgTl,-0.241655769583333,0.0,0.0,False,NM,2.4e-06,225,full,False,2.4e-06
mp-1187095,Sr2PdAu,-0.6500540649999991,0.041464634624998,0.0,False,NM,0.0028319,225,full,False,0.0028319
mp-1187097,Sr2PdPt,-0.6486533599999991,0.056612417499999,0.0,False,NM,7.010000000000001e-05,225,full,False,7.010000000000001e-05
mp-862747,Sr2PtAu,-0.798878797499995,0.059337327500003,0.0,False,NM,0.0042435,225,full,False,0.0042435
mp-863251,Sr2SbAu,-0.929826310000001,0.013161637132352,0.6225,False,NM,0.0,225,full,False,0.0
mp-867169,Sr2SnHg,-0.647137641875002,0.0,0.2717,False,NM,0.0,225,full,False,0.0
mp-862740,Sr2TlCd,-0.377497783333335,0.0,0.0,False,NM,1.48e-05,225,full,False,1.48e-05
mp-1187099,Sr2TlHg,-0.481760356458336,0.0,0.0,False,NM,0.0006535,225,full,False,0.0006535
mp-1187125,Sr2TlIn,-0.419051185000002,0.003278019687499,0.0,False,NM,0.0195221,225,full,False,0.0195221
mp-1187124,Sr2TlPb,-0.580310782500006,0.017313429999994,0.0,False,NM,0.0002815,225,full,False,0.0002815
mp-1187091,Sr2TlZn,-0.32630916875,0.013191636249999,0.0,False,NM,2.3700000000000003e-05,225,full,False,2.3700000000000003e-05
mp-1067817,Sr2UCo,1.570013568541668,1.646744479791667,0.0,False,NM,0.1218663,225,full,False,0.1218663
mp-1066751,Sr2UMn,1.098378050517243,1.11565231875,0.0,True,FiM,0.475959099999999,225,full,True,0.475959099999999
mp-1064703,Sr2UNi,1.108333275000002,1.214191734062501,0.0,True,FM,4.0976824,225,full,True,4.0976824
mp-631384,Sr2VW,1.540139326666668,1.570865391666664,0.0,True,FM,6.560739199999999,225,full,True,6.560739199999999
mp-1187111,Sr2ZnGa,-0.312904642499999,0.024140984732145,0.0,False,NM,0.033009199999999,225,full,False,0.033009199999999
mp-1187096,Sr2ZnHg,-0.353059878125002,0.013512228125,0.0,False,NM,3e-06,225,full,False,3e-06
mp-1187231,Sr2ZnIn,-0.308322154166665,0.0053880728125,0.0,False,NM,4.22e-05,225,full,False,4.22e-05
mp-1187098,Sr2ZnPb,-0.537701737519235,0.020680136999999,0.0542,False,NM,2.0200000000000003e-05,225,full,False,2.0200000000000003e-05
mp-1187101,Sr2ZnPt,-0.448100204999999,0.109181169375,0.0,False,NM,0.000255199999999,225,full,False,0.000255199999999
mp-1187150,SrAcAu2,-0.8110818843749921,0.001678605342114,0.0,False,NM,8.099999999999999e-06,225,full,False,8.099999999999999e-06
mp-1187153,SrAcCd2,-0.308483430624999,0.0,0.0,False,NM,0.000319499999999,225,full,False,0.000319499999999
mp-1187170,SrAcGa2,-0.437160946875,0.129508107500001,0.0,False,NM,2.7e-06,225,full,False,2.7e-06
mp-867925,SrAcHg2,-0.5236201743750021,0.0,0.0,False,NM,4.9000000000000005e-06,225,full,False,4.9000000000000005e-06
mp-1187374,SrAcIn2,-0.408031266458332,0.0,0.0,False,NM,1.54e-05,225,full,False,1.54e-05
mp-978953,SrAcTl2,-0.489930826874996,0.0,0.0,False,NM,2.2e-06,225,full,False,2.2e-06
mp-978929,SrAcZn2,-0.214775271874998,0.0,0.0,False,NM,7.499999999999998e-06,225,full,False,7.499999999999998e-06
mp-961672,SrAlGa,0.345263411666666,0.792648255000001,0.0,False,NM,2e-05,216,half,False,2e-05
mp-631552,SrBiB,0.829275844551266,1.5807060342735042,0.0,False,NM,0.0001737,216,half,False,0.0001737
mp-1100431,SrBrCl,-2.250397281666667,0.44909092975,2.9008000000000003,False,NM,0.0003639,216,half,False,0.0003639
mp-1187175,SrCaEu2,0.042235035833332,0.042235035833332,0.0,True,FM,14.4559607,225,full,True,14.4559607
mp-980947,SrCaHg2,-0.5187959737500011,0.018665545000002,0.0,False,NM,3.5e-06,225,full,False,3.5e-06
mp-980948,SrCaIn2,-0.424974315833332,0.028128486562498,0.0,False,NM,4.8e-06,225,full,False,4.8e-06
mp-962057,SrCaSi,0.181839514166666,0.708119464999999,0.454099999999999,False,NM,0.000454,216,half,False,0.000454
mp-962065,SrCaSn,-0.054899408333332,0.619570900833332,0.158199999999999,False,NM,0.0007496,216,half,False,0.0007496
mp-972119,SrCaTl2,-0.493826069999997,0.009532575000001,0.0,False,NM,4.599999999999997e-06,225,full,False,4.599999999999997e-06
mp-867179,SrCdHg2,-0.360776323750005,0.008872362465274,0.0,False,NM,7e-07,225,full,False,7e-07
mp-962076,SrCdSi,0.422365833333333,0.7475825500000011,0.0,False,NM,0.1458883,216,half,False,0.1458883
mp-1187193,SrCeHg2,-0.382977573750002,0.0201026475,0.0,True,FM,1.073947,225,full,True,1.073947
mp-631494,SrCrPd2,0.12326748,0.5993197099999971,0.0,True,FM,4.5233356,216,full,True,4.5233356
mp-631355,SrCrRh2,0.32639712125,0.5176573762499991,0.0,True,FM,3.4344192,225,full,True,3.4344192
mp-631277,SrCrW2,1.459772515833332,1.459772515833332,0.0,False,NM,0.005676599999999,225,full,False,0.005676599999999
mp-1100769,SrEuHg2,-0.527108090000005,0.0035667625,0.0,True,FM,7.3135038,225,full,True,7.3135038
mp-1100785,SrEuIn2,-0.417507262083333,0.011125167187501,0.0,True,FM,7.0485545,225,full,True,7.0485545
mp-1187171,SrEuPt2,-0.787334228749999,0.065961551180556,0.0,True,FM,6.904311199999999,225,full,True,6.904311199999999
mp-1187174,SrEuTl2,-0.5306997787499981,0.0,0.0,True,FM,7.1301991,225,full,True,7.1301991
mp-631313,SrHf2Mo,0.856987337708325,0.921994609583329,0.0,True,FiM,0.6605707,216,full,True,0.6605707
mp-631392,SrHfRe2,0.8307348362499981,1.126260109375005,0.0,False,NM,0.001325,216,full,False,0.001325
mp-1187216,SrHg2Pb,-0.403781776250005,0.0,0.0,False,NM,1e-06,225,full,False,1e-06
mp-867173,SrInHg2,-0.403129535416669,0.0,0.0,False,NM,2.8e-06,225,full,False,2.8e-06
mp-1187186,SrLaHg2,-0.5234006925000071,0.0,0.0,False,NM,0.0002417,225,full,False,0.0002417
mp-1187188,SrLaPt2,-1.030214727812499,0.048759100937502,0.0,False,NM,0.0015228,225,full,False,0.0015228
mp-631340,SrLaZr2,0.6045300720833311,0.6045300720833311,0.0,False,NM,0.0018164,225,full,False,0.0018164
mp-1187184,SrLi2In,-0.226106460833332,0.025043853952206,0.0,False,NM,0.0034267,225,full,False,0.0034267
mp-867174,SrLi2Pb,-0.395149926666665,0.0,0.0,False,NM,6.3e-06,225,full,False,6.3e-06
mp-867171,SrLi2Sn,-0.473174742916666,0.0,0.0,False,NM,7.8e-06,225,full,False,7.8e-06
mp-1100426,SrLiSb,-0.432404617777777,0.5863795350000001,0.9661999999999992,False,NM,9.81e-05,216,half,False,9.81e-05
mp-1187185,SrMgHg2,-0.377375292500003,0.005129312249998,0.0,False,NM,4e-07,225,full,False,4e-07
mp-962059,SrMgSi,0.513711171666666,0.8722445658333331,0.0,False,NM,0.0015937,216,half,False,0.0015937
mp-962075,SrMgSn,0.154483226666667,0.7064050658333351,0.0,False,NM,0.0508656,216,half,False,0.0508656
mp-867172,SrMgTl2,-0.271429610416669,0.0,0.0,False,NM,2e-07,225,full,False,2e-07
mp-631376,SrMn2Si,0.506373645593868,0.8228455961111111,0.0,True,FiM,0.6068532,216,full,True,0.6068532
mp-631560,SrMnRe2,1.003735553850575,1.003735553850575,0.0,True,FiM,2.5070017,216,full,True,2.5070017
mp-631346,SrNiIr2,0.681506220000009,0.929059588749999,0.0,True,FM,1.8296518,225,full,True,1.8296518
mp-1187217,SrPmPt2,-0.984746794375006,0.0,0.0,False,NM,2.1e-06,225,full,False,2.1e-06
mp-631468,SrScBe,1.2909383233333331,1.369108592666666,0.0,False,NM,0.0130762,216,half,False,0.0130762
mp-631358,SrTa2Mn,1.167627442858478,1.216871190520834,0.0,True,FiM,0.5045341,225,full,True,0.5045341
mp-961663,SrTePd,-1.041616672222221,0.260136883333333,0.6743,False,NM,0.0001107,216,half,False,0.0001107
mp-1186765,SrTl2Cd,-0.248324066666669,0.010923391840278,0.309899999999999,False,NM,0.000120699999999,225,full,False,0.000120699999999
mp-981311,SrTlHg2,-0.376095352083339,0.0,0.0,False,NM,3.44e-05,225,full,False,3.44e-05
mp-1186778,SrYbEu2,0.210120561249997,0.210120561249997,0.0,True,FM,14.937058,225,full,True,14.937058
mp-631361,SrZr2Nb,0.7261369308333301,0.7261369308333301,0.0,True,FiM,0.0891151,216,full,True,0.0891151
mp-631506,SrZrCo,1.048716999444444,1.2690259277777791,0.0,False,NM,0.0006242,216,half,False,0.0006242
mp-631390,SrZrZn,0.855029464444444,1.072398694444444,0.0,False,NM,9.8e-05,216,half,False,9.8e-05
mp-631451,Ta2CdBi,0.806676277583335,0.806676277583335,0.0,False,NM,2.08e-05,216,full,False,2.08e-05
mp-867779,Ta2CrFe,-0.125781303666666,0.012144368347222,0.0,False,NM,0.000451599999999,225,full,False,0.000451599999999
mp-867774,Ta2CrOs,-0.309741643666669,0.0,0.0,False,NM,2.05e-05,225,full,False,2.05e-05
mp-1186772,Ta2CrRe,-0.232991294291664,0.037964785333329,0.0,False,NM,0.001283399999999,225,full,False,0.001283399999999
mp-977425,Ta2CrRu,-0.254652972416664,0.0,0.0,False,NM,3.6e-06,225,full,False,3.6e-06
mp-979267,Ta2FeMo,-0.164796696166664,0.0,0.0,False,NM,2.1e-06,225,full,False,2.1e-06
mp-864764,Ta2FeOs,-0.269597676166664,0.004915379375001,0.0,True,FM,1.7320569,225,full,True,1.7320569
mp-1186768,Ta2FeRu,-0.231033878666664,0.019575400384614,0.0,True,FM,1.6227956,225,full,True,1.6227956
mp-864761,Ta2MnOs,-0.27911142228735,0.001766335416668,0.0,False,NM,0.004240499999999,225,full,False,0.004240499999999
mp-1186761,Ta2MnRe,-0.324181165412362,0.0,0.0,False,NM,7e-07,225,full,False,7e-07
mp-1186766,Ta2MoIr,-0.440666568666671,0.0,0.0,False,NM,4.0400000000000006e-05,225,full,False,4.0400000000000006e-05
mp-864770,Ta2MoOs,-0.455647456166666,0.0,0.0,False,NM,1e-07,225,full,False,1e-07
mp-864782,Ta2MoRu,-0.407219847416669,0.0,0.0,False,NM,3e-07,225,full,False,3e-07
mp-1186763,Ta2MoW,-0.136592176166672,0.0,0.0,False,NM,7.290000000000001e-05,225,full,False,7.290000000000001e-05
mp-864640,Ta2NbIr,-0.38402082116667,0.0,0.0,False,NM,3.2e-06,225,full,False,3.2e-06
mp-864639,Ta2NbOs,-0.353501543666673,0.0,0.0,False,NM,6.4e-06,225,full,False,6.4e-06
mp-1186767,Ta2NbRe,-0.274090649291665,0.0,0.0,False,NM,3.0400000000000004e-05,225,full,False,3.0400000000000004e-05
mp-979288,Ta2NbRh,-0.255578943666666,0.0,0.0,False,NM,1e-07,225,full,False,1e-07
mp-864651,Ta2NbRu,-0.283485304916673,0.0,0.0,False,NM,9.1e-06,225,full,False,9.1e-06
mp-1186759,Ta2OsRu,-0.346605649886896,0.026476593125003,0.0,False,NM,0.0010596,225,full,False,0.0010596
mp-864650,Ta2OsW,-0.346737053666664,0.0,0.0,False,NM,2.4e-06,225,full,False,2.4e-06
mp-977353,Ta2ReMo,-0.38493699429167,0.0,0.0,False,NM,1.8400000000000003e-05,225,full,False,1.8400000000000003e-05
mp-1187213,Ta2ReOs,-0.435583326791672,0.0,0.0,False,NM,4.51e-05,225,full,False,4.51e-05
mp-977357,Ta2ReRu,-0.43794802304167,0.0,0.0,False,NM,0.0,225,full,False,0.0
mp-1187212,Ta2ReTc,-0.5435337892916651,0.0,0.0,False,NM,9e-07,225,full,False,9e-07
mp-1187208,Ta2ReW,-0.314714616791668,0.0,0.0,False,NM,4.43e-05,225,full,False,4.43e-05
mp-1187211,Ta2RuW,-0.308322747416667,0.0,0.0,False,NM,3.9e-06,225,full,False,3.9e-06
mp-977363,Ta2TcMo,-0.375108203666663,0.0,0.0,False,NM,3.32e-05,225,full,False,3.32e-05
mp-1187210,Ta2TcOs,-0.484535433666664,0.0,0.0,False,NM,7.580000000000001e-05,225,full,False,7.580000000000001e-05
mp-1187200,Ta2TcRu,-0.464818864916665,6.680416667137479e-05,0.0,False,NM,2.92e-05,225,full,False,2.92e-05
mp-972209,Ta2TcW,-0.304700351166665,0.014745202142854,0.0,False,NM,1.699999999999999e-06,225,full,False,1.699999999999999e-06
mp-1187194,Ta2TiRe,-0.250716845958336,0.020239233666664,0.0,True,FM,1.2079875,225,full,True,1.2079875
mp-1187209,Ta2TiW,-0.001044470333333,0.025902112083336,0.0,False,NM,0.0078843,225,full,False,0.0078843
mp-1187195,Ta2VIr,-0.433117161166663,0.00755105652778,0.0,False,NM,4.53e-05,225,full,False,4.53e-05
mp-864670,Ta2VOs,-0.384749546166666,0.0,0.0,False,NM,0.0049346,225,full,False,0.0049346
mp-1187201,Ta2VRe,-0.308708471791668,0.003847875000005,0.0,True,FM,1.0335516,225,full,True,1.0335516
mp-977382,Ta2VRu,-0.313998332416666,0.0,0.0,True,FM,0.8185882,225,full,True,0.8185882
mp-3340,TaAlCo2,-0.464545841833327,0.0,0.0,True,FM,2.0000056,225,full,True,2.0000056
mp-867249,TaAlFe2,-0.450338471833331,0.0,0.3242,False,NM,0.0,225,full,False,0.0
mp-5921,TaAlNi2,-0.466782146833335,0.012631217125001,0.0,False,NM,3.67e-05,225,full,False,3.67e-05
mp-862445,TaAlOs2,-0.680675936833338,0.0,0.0,False,NM,9e-07,225,full,False,9e-07
mp-961679,TaAlPt,-0.014324575777777,0.6806249600555561,0.0,False,NM,3.64e-05,216,half,False,3.64e-05
mp-862446,TaAlRu2,-0.832035074333337,0.0,0.0,False,NM,3e-07,225,full,False,3e-07
mp-631686,TaAsPb2,0.7964247887916681,1.10677532375,0.0,False,NM,7.72e-05,225,full,False,7.72e-05
mp-1100407,TaAsRu,0.024332799072643,0.5132106322222221,0.0,True,FM,0.073394599999999,216,half,True,0.073394599999999
mp-631566,TaAuBr,0.9427529792222232,1.555515878714286,0.0,False,NM,0.0323716,216,half,False,0.0323716
mp-867114,TaBeRu2,-0.371619060583327,0.0,0.0,False,NM,7.47e-05,225,full,False,7.47e-05
mp-1100416,TaBiRu,0.601300452925926,0.8321249700000021,0.0,False,NM,0.0001939,216,half,False,0.0001939
mp-31459,TaCoSb,-0.176692009111111,0.09887629448148,0.0,False,NM,0.0005354,216,half,False,0.0005354
mp-631635,TaCoSn2,0.599312998166666,0.717784798833332,0.0,True,FM,1.9837173,216,full,True,1.9837173
mp-867771,TaCuRh2,-0.486411746833333,0.0,0.0,False,NM,3.1800000000000014e-05,225,full,False,3.1800000000000014e-05
mp-1187225,TaFe2Ge,-0.21777693808333,0.030270158593756,0.0,True,FiM,1.0029984,225,full,True,1.0029984
mp-867216,TaFeRu2,-0.193612876833331,0.0,0.0,True,FM,4.7738077,225,full,True,4.7738077
mp-631267,TaFeSb,0.464764864222222,0.6955610400000001,0.0,True,FiM,1.3994701,216,half,True,1.3994701
mp-30555,TaGaCo2,-0.345240171208333,0.0,0.0,True,FM,2.0002743,225,full,True,2.0002743
mp-867507,TaGaFe2,-0.312452746208333,0.0,0.0597,False,NM,0.0,225,full,False,0.0
mp-21175,TaGaNi2,-0.357744934333336,0.002440558104837,0.0,False,NM,2.2e-06,225,full,False,2.2e-06
mp-867788,TaGaOs2,-0.415546201833329,0.0,0.0,False,NM,2e-07,225,full,False,2e-07
mp-961677,TaGaPt,-0.04541645161111,0.483544731071426,0.0,False,NM,0.000938799999999,216,half,False,0.000938799999999
mp-867781,TaGaRu2,-0.6504562893333341,0.0,0.0,False,NM,1.4e-06,225,full,False,1.4e-06
mp-961727,TaGeRh,-0.012095959944441,0.572116239999999,0.0,False,NM,0.0003872,216,half,False,0.0003872
mp-1187233,TaGeRu2,-0.339951169333335,0.046077676120134,0.0,True,FM,0.9152247,225,full,True,0.9152247
mp-961692,TaInNi,0.7493166550555561,0.959352788,0.0,False,NM,0.0003741,216,half,False,0.0003741
mp-867958,TaInRu2,-0.421268224333335,0.0,0.0,False,NM,2.499999999999999e-06,225,full,False,2.499999999999999e-06
mp-867120,TaMn2Al,-0.301139298298851,0.0,0.0,True,FiM,2.0006249,225,full,True,2.0006249
mp-1187238,TaMn2Ga,-0.146039679074714,0.073360492187497,0.0,True,FiM,1.9985709999999992,225,full,True,1.9985709999999992
mp-863250,TaMn2Ge,-0.204281419548852,0.007110784687499,0.0,True,FiM,0.9982,225,full,True,0.9982
mp-961654,TaMnAs,0.405291539078543,0.774726193055554,0.0,True,FiM,2.119774,216,half,True,2.119774
mp-867811,TaMnRu2,-0.428011052954023,0.0,0.0,True,FM,4.2074409,225,full,True,4.2074409
mp-1187242,TaNbRe2,-0.42086833808333,0.0,0.0,False,NM,1.6e-06,225,full,False,1.6e-06
mp-972323,TaNbTc2,-0.47445536933333,0.0,0.0,False,NM,1.1e-06,225,full,False,1.1e-06
mp-631364,TaOsPb,0.805066687714277,1.012601295238084,0.0,False,NM,0.000879,216,half,False,0.000879
mp-1100410,TaPRu,-0.009313285936509,0.8092258691666671,0.0,False,NM,0.0009834,216,half,False,0.0009834
mp-631423,TaPbBr,1.162116339222223,1.808804897138889,0.0,False,NM,0.000223199999999,216,half,False,0.000223199999999