material_id,formula,formation_energy,ehull,band_gap,is_magnetic,magnetic_ordering,total_magnetization,spacegroup
mp-1521856,NaSrTbNbO6,-2.9618387498045973,0.132195729604165,0.0,False,NM,1.0,216
mp-1523004,NaSrTbSeO6,-2.430124831038972,0.130709223937495,2.0783,False,NM,0.0,216
mp-1520524,NaSrTbVO6,-2.7173730088045973,0.195896761354165,0.0,True,FiM,0.999999899999999,216
mp-1522682,NaSrTiBiO6,-2.450685473471265,0.115276026,0.6261000000000001,False,NM,0.0,216
mp-1186171,NaSrTl2,-0.32048635468749603,0.016682664218752002,0.0,False,NM,0.0022887,225
mp-1518900,NaSrYFeO6,-2.229593585137931,0.14173390168750002,0.0,True,FiM,2.0000003,216
mp-1521870,NaSrYMnO6,-2.371562926931035,0.147987191968756,0.0,True,FiM,1.0000003,216
mp-1517333,NaSrYSeO6,-2.419496737372306,0.134260029937495,2.076999999999999,False,NM,0.0,216
mp-1522178,NaSrYWO6,-2.893746595137931,0.042529193708331005,2.8804,False,NM,0.0,216
mp-1519218,NaSrZrBiO6,-2.537648231137931,0.08331153675000001,1.236899999999999,False,NM,0.0,216
mp-1518090,NaSrZrNbO6,-3.218598854137931,0.034875027866666006,2.2647999999999993,False,NM,0.0001874,216
mp-1518455,NaSrZrSbO6,-2.831858720137931,0.027386957750000003,3.1782,False,NM,0.0001573,216
mp-1519080,NaSrZrVO6,-2.945081538137931,0.116728290166658,1.198,False,NM,0.0,216
mp-1519119,NaSrZrWO6,-2.857939619137931,0.069558405516671,0.0,True,FM,1.0,216
mp-977140,NaTa3,0.801282530862067,0.801282530862067,0.0,False,NM,0.0006326,225
mp-631337,NaTaNi,1.466883314222222,1.649500366166663,0.0,False,NM,0.1809269,216
mp-1186178,NaTb3,0.307666223362069,0.307666223362069,0.0,False,NM,0.0072954,225
mp-1517762,NaTbEuSbO6,-2.645355231304599,0.24960669708333302,0.0,True,FM,5.980166,216
mp-1517099,NaTbEuWO6,-2.866097438304598,0.102554475000005,0.29999999999999905,True,FM,7.0000001,216
mp-1517962,NaTbMnWO6,-2.4157772875977,0.27216566000000003,0.8692000000000001,True,FM,5.0000006,216
mp-1186177,NaTbTl2,-0.22945600367816701,0.0,0.0,False,NM,5.799999999999999e-06,225
mp-977138,NaTc3,0.7614378846120681,0.7614378846120681,0.0,False,NM,0.0595905,225
mp-1079529,NaTeO6,-0.559043144755746,0.596955429374999,0.0,True,FM,5.0000037,225
mp-1205927,NaTl(NF3)2,-0.38326006047126504,1.140480723750001,0.0,True,FM,3.9987291,225
mp-865145,NaTl2Bi,-0.188457398749996,0.014346414999991002,0.0,False,NM,0.0,225
mp-865127,NaTl2Cd,-0.063544542011498,0.0,0.0,False,NM,0.0,225
mp-989561,NaTl2GaF6,-2.650154488554599,0.0,4.3908000000000005,False,NM,8.010000000000002e-05,225
mp-1186185,NaTl2In,-0.12559295749999602,0.0,0.0,False,NM,3e-07,225
mp-989533,NaTl2InF6,-2.581778101471266,0.0,4.274699999999999,False,NM,0.0003692,225
mp-555970,NaTl2MoF6,-2.556509695804598,0.0,2.9199,True,FM,2.9996263,225
mp-977162,NaTl2Pb,-0.11401581333333101,0.020959664166667002,0.0,False,NM,0.0139029,225
mp-977205,NaTl2Pd,-0.172531864999996,0.014864715294109002,0.0,False,NM,3e-07,225
mp-14037,NaTl2RhF6,-2.211141618804599,0.0,1.7848000000000002,False,NM,0.0,225
mp-977204,NaTl2Sb,-0.20396447487268402,0.020397186377316003,0.0,False,NM,0.00018879999999900002,225
mp-1186187,NaTl2Sn,-0.10060256791666601,0.032206337395834,0.0,False,NM,0.037656499999999,225
mp-1206562,NaTl3F6,-2.195089750000002,0.0,3.6256,False,NM,0.0,225
mp-1186188,NaTlHg2,-0.18469367624999902,0.013436067500002001,0.0,False,NM,1.1e-06,225
mp-865126,NaTlPd2,-0.21045003,0.0,0.0,False,NM,0.0,225
mp-976863,NaTm3,0.32584916336206804,0.32584916336206804,0.0,False,NM,0.0132585,225
mp-866128,NaTmTl2,-0.289321427499999,0.0,0.0,False,NM,5.9e-06,225
mp-1205997,NaUF6,-3.667918308124999,0.0,0.9529000000000001,True,FM,1.0000001,225
mp-1079436,NaV(NF3)2,-1.302733654137931,1.048203598999999,1.6235,True,FM,5.9999994,225
mp-1209962,NaVH8(NF3)2,-1.741254018409962,0.027633454861109002,0.0,True,FM,1.9999869,225
mp-635327,NaY2In,0.127275790862071,0.49820788336207006,0.0,False,NM,0.0891506,225
mp-1186191,NaY3,0.310303443362069,0.310303443362069,0.0,False,NM,0.00041319999999900006,225
mp-962060,NaYSi,0.155427322816092,0.7542461944827601,0.20869999999999903,False,NM,4.77e-05,216
mp-962064,NaYSn,0.009947487873563001,0.5083320217424211,0.101799999999999,False,NM,0.00024329999999900002,216
mp-1517501,NaYSnWO6,-2.425240351637931,0.155983572701093,2.544699999999999,False,NM,0.0,216
mp-1186196,NaYTl2,-0.31741834749999503,0.0,0.0,False,NM,5.9e-06,225
mp-980189,NaYb3,0.34890578374999803,0.34890578374999803,0.0,False,NM,2.299999999999998e-06,225
mp-865849,NaYbAu2,-0.657612963749997,0.063675367559525,0.0,False,NM,3.9e-06,225
mp-1186201,NaYbPb2,-0.31875638374999904,0.0,0.0,False,NM,9.199999999999997e-06,225
mp-34240,NaZnAs,-0.279341486293103,0.135616123333333,0.0,False,NM,1.8900000000000002e-05,216
mp-1517464,NaZrNbSnO6,-2.744293399637931,0.14814379000000602,2.349599999999999,False,NM,0.0,216
mp-1518645,NaZrSnWO6,-2.387310421637931,0.164408084271743,0.0,True,FM,1.0,216
mp-8636,Nb,0.32016416000000003,0.32016416000000003,0.0,False,NM,1e-07,225
mp-1079379,Nb(Br3N)2,0.215562715555555,1.094349162083333,0.0,True,FM,6.10437,225
mp-1147615,Nb(Cu3O4)2,-1.313880645999999,0.08708109026190401,0.0,False,NM,0.0011435,225
mp-1205990,Nb(NCl3)2,0.278643158425928,1.192559852407409,0.0,True,FM,4.9898293,225
mp-1192832,Nb2(Co7B2)3,-0.24490584844828,0.0,0.0,True,FiM,24.7984979,225
mp-1210179,Nb2(Ni7B2)3,-0.317679833965515,0.0,0.0,False,NM,4.999999999999999e-06,225
mp-1186203,Nb2CrOs,-0.14556290499999802,0.064149342361108,0.0,False,NM,8e-07,225
mp-1186200,Nb2CrRu,-0.102559058749999,0.060244265833333005,0.0,False,NM,1.7100000000000002e-05,225
mp-1186205,Nb2MoOs,-0.29208458000000004,0.0,0.0,False,NM,9.800000000000001e-06,225
mp-1186206,Nb2MoRu,-0.251421208749999,0.0,0.0,False,NM,1.3e-06,225
mp-1186207,Nb2ReRu,-0.26452745187500404,0.0,0.0,False,NM,1.0500000000000001e-05,225
mp-1186208,Nb2ReTc,-0.36162336312500104,0.0,0.0,False,NM,1.3e-06,225
mp-982725,Nb2RuW,-0.15878765625000502,0.011075368837211,0.0,False,NM,2.44e-05,225
mp-1186210,Nb2TcOs,-0.307466377499999,0.0,0.0,False,NM,0.000114999999999,225
mp-1186209,Nb2TcRu,-0.289452818749996,0.022269798020833002,0.0,False,NM,8.750000000000004e-05,225
mp-1196556,Nb3(Cl3O4)2,-1.33050349117647,0.6367427055661771,0.0,True,FM,3.6266259,225
mp-21666,Nb3(Fe10B3)2,-0.26042776189655104,0.002572582241379,0.0,True,FiM,33.0460513,225
mp-1210153,Nb3(Ni10B3)2,-0.35058072603448004,0.0,0.0,False,NM,1.1100000000000002e-05,225
mp-999439,Nb3Cr,0.109810792499999,0.109810792499999,0.0,False,NM,0.0094214,225
mp-1186214,Nb3Cu,0.171096255000001,0.171096255000001,0.0,False,NM,0.00021789999999900002,225
mp-999395,Nb3Fe,0.030735325,0.084836684038462,0.0,True,FM,0.212386599999999,225
mp-999396,Nb3Ni,0.032775772499999,0.14445807124999901,0.0,False,NM,0.007205199999999001,225
mp-1186218,Nb3Os,-0.271538275000001,0.010133212500001001,0.0,False,NM,5.7e-06,225
mp-977434,Nb3Ru,-0.208804326249999,0.0,0.0,False,NM,7.299999999999999e-06,225
mp-4139,Nb4GaS8,-1.301603242115384,0.033462013782056,0.0,False,NM,0.213996599999999,216
mp-15208,Nb4GaSe8,-0.9451164863461541,0.009445294038471,0.0,False,NM,0.002058,216
mp-753384,Nb4Tl4O13,-2.355071489444447,0.033882662321427004,0.0,True,FM,1.985007599999999,216
mp-580140,Nb6Co16Ge7,-0.28633055810344704,0.013936949741380001,0.0,True,FM,8.2881836,225
mp-541938,Nb6Co16Si7,-0.517709478965516,0.0,0.0,False,NM,0.0122784,225
mp-542995,Nb6Fe16Si7,-0.41841044379310205,0.0,0.0,False,NM,0.0,225
mp-672653,Nb6Ni16Ge7,-0.37465215155172304,0.013506037465519,0.0,False,NM,0.0306068,225
mp-3640,Nb6Si7Ni16,-0.576883083793095,0.0,0.0,False,NM,5.7100000000000006e-05,225
mp-5149,NbAlCo2,-0.4162606125,0.0,0.0,True,FM,2.0000777,225
mp-865280,NbAlFe2,-0.375754104999999,0.0,0.32070000000000004,False,NM,0.0,225
mp-4813,NbAlNi2,-0.431075287499998,0.007198464916665001,0.0,False,NM,5.6600000000000014e-05,225
mp-865278,NbAlOs2,-0.555932304999998,0.0,0.0,False,NM,2.8e-06,225
mp-961680,NbAlPt,-0.159647502833337,0.66268204333333,0.0,False,NM,0.0001239,216
mp-11537,NbAlRu2,-0.7234191700000031,0.0,0.0,False,NM,2e-07,225
mp-1100406,NbAsRu,0.09515401416666601,0.5424827183333321,0.0,False,NM,1.8e-06,216
mp-631531,NbBW,1.6003860124999911,2.139855604999997,0.0,False,NM,0.0036438,216
mp-631441,NbBi2Mo,0.6922771350000041,0.7265993124999991,0.0,False,NM,0.0012309,216
mp-1009458,NbC,0.027386810208327002,0.593029936874998,0.0,False,NM,0.0009778,216
mp-910,NbC,-0.535804569999999,0.029838556666671002,0.0,False,NM,0.0,225
mp-1205736,NbCo(PbO3)2,-1.9060418849999992,0.112829420390622,1.229899999999999,False,NM,0.0035753,225
mp-4583,NbCo2Sn,-0.10970941625000001,0.12522808999999901,0.0,True,FM,1.929951,225
mp-31460,NbCoSb,-0.264988063333333,0.020578627719294,0.0,False,NM,0.232171699999999,216
mp-1094088,NbCoSn,-0.313250008333332,0.0,0.970399999999999,False,NM,0.0,216
mp-30560,NbCoSn,0.688834795,1.002084803333333,0.0,True,FM,1.2593054,216
mp-568075,NbCoSn,0.5555590383333331,0.868809046666665,0.0,True,FM,0.1941829,216
mp-1517880,NbCr(SnO3)2,-2.141208034999999,0.175117182000003,1.8758,True,FM,3.0000005,225
mp-999390,NbCr3,0.12222914000000101,0.12222914000000101,0.0,True,FM,0.0173191,225
mp-631299,NbCrCo,0.83372563,0.939377476777778,0.0,True,FiM,3.046156,216
mp-631452,NbCrW,1.030356558333338,1.041665481666669,0.0,True,FiM,0.860027099999999,216
mp-1220306,NbFe(PbO3)2,-2.075322707999999,0.047425282343742006,1.8713000000000002,True,FM,5.0001615,225
mp-999389,NbFe3,-0.048552039999998006,0.052543444999999,0.0,True,FiM,5.9121542,225
mp-1186223,NbFeRu2,-0.089619324999999,0.032617276666668,0.0,True,FM,4.6265604,225
mp-9437,NbFeSb,-0.402070886666668,0.0,0.513799999999999,False,NM,0.0,216
mp-1206729,NbGa(PbO3)2,-2.20270858575,0.070775950640625,2.6941,False,NM,0.0006188999999990001,225
mp-1518242,NbGa(SnO3)2,-2.10178008275,0.190147359250008,1.947099999999999,False,NM,0.0,225
mp-4364,NbGaCo2,-0.31061607437499905,0.0,0.0,True,FM,2.0004925,225
mp-977410,NbGaFe2,-0.257838301874999,0.0,0.09050000000000001,False,NM,0.0,225
mp-3539,NbGaNi2,-0.333681539374999,0.011909727114487002,0.0,False,NM,5.9100000000000014e-05,225
mp-1186222,NbGaOs2,-0.305063247500001,0.0,0.0,False,NM,2e-07,225
mp-961669,NbGaPt,-0.088440139166665,0.46018568333333404,0.0,False,NM,8.59e-05,216
mp-977401,NbGaRu2,-0.5585245000000001,0.0,0.0,False,NM,0.0,225
mp-1186224,NbGaTc2,-0.2576365725,0.014954140000000001,0.0,False,NM,0.0013126,225
mp-961726,NbGeRh,0.008528901666667001,0.6169450924999991,0.0,False,NM,0.0003786,216
mp-864669,NbGeRu2,-0.267934366250008,0.0,0.0,True,FM,0.809165399999999,225
mp-24154,NbH2,-0.24444091916666602,0.0,0.0,False,NM,1e-06,225
mp-1220373,NbIn(PbO3)2,-2.108428494666666,0.08606350434375701,2.405999999999999,False,NM,1.9900000000000003e-05,225
mp-961731,NbInNi,0.661525594444444,0.8116503452380951,0.0,False,NM,0.0046495,216
mp-961708,NbInPt,0.051087372583339,0.611438533749996,0.0,False,NM,0.002193199999999,216
mp-1021660,NbInRu,0.11360931708334,0.376232192500001,0.0,True,FM,0.5408159,216
mp-864788,NbInRu2,-0.3430913525,0.0,0.0,False,NM,1.4e-06,225
mp-1018142,NbN,-0.8265537543749981,0.42023749000000105,0.0,False,NM,0.0055452,216
mp-1580,NbN,-1.042432479375001,0.20435876499999803,0.0,False,NM,0.0001019,225
mp-3504,NbNi2Sn,-0.196211628749998,0.051920869838712004,0.0,False,NM,8e-06,225
mp-999378,NbNi3,-0.120857319999999,0.171761418749999,0.0,True,FM,0.3702927,225
mp-2692,NbO,-1.498900522500001,0.788760408333331,0.0,False,NM,0.0005022,225
mp-631356,NbOsPb,0.7682431844444391,0.9226721864814771,0.0,False,NM,0.005006099999999,216
mp-631412,NbRu2Cl,0.5135378475000001,1.188572746249996,0.0,False,NM,5.7800000000000016e-05,225
mp-1209893,NbSBr,-1.368515633333333,0.025867288849220002,0.0,True,FM,2.0230043,216
mp-1209965,NbSI,-1.138119263333333,0.011184971885966,0.0,True,FM,2.000123,216
mp-31453,NbSbRh,-0.40056579666666603,0.07368971108333301,0.0,True,FM,0.923721399999999,216
mp-505297,NbSbRu,-0.515632994999999,0.0,0.377299999999999,False,NM,0.0,216
mp-1209865,NbSeBr,-1.222747533281247,0.0012022837500050001,0.0,True,FM,1.9997605999999992,216
mp-23051,NbSeI,-1.013509827447916,0.008265339166666,0.0,True,FM,2.0009714,216
mp-1100400,NbSiRh,-0.211761196666665,0.629086457499998,0.0,True,FM,0.3511168,216
mp-1186228,NbSiRu2,-0.41744773249999906,0.064326278333334,0.0,True,FM,0.5465355,225
mp-864672,NbSiTc2,-0.45637836874999804,0.0,0.0,False,NM,2.2400000000000002e-05,225
mp-30796,NbSnRh,0.341956508333333,0.7037227498809511,0.0,True,FM,0.3188367,216
mp-631352,NbSnRu,0.596433260448719,0.828892292948719,0.0,False,NM,0.0001548,216
mp-1186233,NbSnRu2,-0.260648565000003,0.0,0.0,True,FM,0.8491105,225
mp-977409,NbTc2Ge,-0.25930779875000104,0.0,0.0,False,NM,2.29e-05,225
mp-1186232,NbTc2Sn,-0.20789863000000203,0.0,0.0,False,NM,0.0001368,225
mp-961704,NbTlPt,0.614533467222221,1.057323620555557,0.0,False,NM,0.0003566,216
mp-864857,NbZnCo2,-0.16242754499998702,0.0,0.0,True,FiM,1.0513642,225
mp-864831,NbZnRh2,-0.46407149749999205,0.0,0.0,False,NM,0.0002308,225
mp-864840,NbZnRu2,-0.257951754999998,0.0,0.0,False,NM,0.000127599999999,225
mp-159,Nd,0.009693512500000001,0.009693512500000001,0.0,False,NM,2e-07,225
mp-1205000,Nd11Cd45,-0.24374970352678302,0.0,0.0,False,NM,0.4260602,216
mp-1201594,Nd11Hg45,-0.32911513767857803,0.034201682946424006,0.0,False,NM,0.3460913,216
mp-1210236,Nd2(Fe7B2)3,-0.097136630689654,0.10333084237069101,0.0,True,FiM,42.726567,225
mp-974387,Nd2AgHg,-0.41505135187500003,0.0035568774999950002,0.0,True,FM,0.2077891,225
mp-977404,Nd2AgIr,-0.524585854912039,0.048167581159418,0.0,False,NM,0.0009943,225
mp-1186235,Nd2AgRu,-0.22035874703125202,0.023519266874998,0.0,False,NM,0.0072447,225
mp-1186236,Nd2CdAg,-0.26713386166666303,0.007896097500001,0.0,True,FM,0.452312899999999,225
mp-973779,Nd2CdHg,-0.377544856874998,0.008660625,0.0,True,FM,1.0224864,225
mp-866067,Nd2CdIn,-0.40104680291666406,0.0,0.0,False,NM,0.0020975,225
mp-864805,Nd2CuIr,-0.48188325083333006,0.055671837499996005,0.0,False,NM,0.0001719,225
mp-864837,Nd2CuRu,-0.17880408390624303,0.029915763750004,0.0,False,NM,0.00043079999999900005,225
mp-1186238,Nd2GaAg,-0.45825639249999706,0.027970631249999003,0.0,True,FM,0.3093312,225
mp-1186242,Nd2HgPb,-0.6318309431249951,0.044850712968752,0.0,False,NM,0.0007407,225
mp-1186279,Nd2InAg,-0.45081184250000206,0.003113282499995,0.0,True,FM,0.3426161,225
mp-1186249,Nd2InHg,-0.596742443125002,0.0,0.0,True,FM,0.908348899999999,225
mp-973606,Nd2IrAu,-0.678173896249999,0.05828360767856901,0.0,False,NM,0.0011997,225
mp-864622,Nd2IrPd,-0.7116777887499991,0.027145546428571,0.0,False,NM,0.0193727,225
mp-864611,Nd2IrRh,-0.622310441249998,0.04756293267857101,0.0,False,NM,0.0001685,225
mp-976252,Nd2IrRu,-0.386574708916668,0.13350505708333302,0.0,False,NM,0.015187899999999002,225
mp-864610,Nd2MgAl,-0.24542743249999902,0.0,0.0,False,NM,2.899999999999999e-06,225
mp-1186253,Nd2MgCd,-0.18336619750000002,0.013470684999997,0.0,False,NM,0.000306399999999,225
mp-864612,Nd2MgIn,-0.31822140666666604,0.0,0.0,False,NM,0.0002994,225
mp-864602,Nd2MgTl,-0.24991101333333302,0.007034495833332001,0.0,False,NM,0.0011369,225
mp-864659,Nd2NiIr,-0.444347543749999,0.074989975000001,0.0,False,NM,0.010684299999999002,225
mp-864633,Nd2SnHg,-0.600628073125,0.020945180937498,0.0,False,NM,1.1900000000000001e-05,225
mp-1186256,Nd2TlAg,-0.319850047500001,0.0,0.0,True,FM,0.325217,225
mp-1186254,Nd2TlCd,-0.339591142083334,0.0040128424999990005,0.0,True,FM,0.947724799999999,225
mp-1186255,Nd2TlHg,-0.42201268770833705,0.007909484999998,0.0,True,FM,0.9572795,225
mp-1186261,Nd2TlIn,-0.432137543749999,0.004129275,0.0,False,NM,4.26e-05,225
mp-976341,Nd2ZnAg,-0.277327844166665,0.0051257474999990005,0.0,True,FM,0.3827345,225
mp-976344,Nd2ZnGa,-0.44600714812500003,0.005450062499997001,0.0,False,NM,4.5600000000000024e-05,225
mp-1186257,Nd2ZnHg,-0.37440807687500005,0.019221037499998,0.0,True,FM,0.6620973,225
mp-1186322,Nd2ZnIn,-0.262045070416665,0.13792868999999802,0.0,False,NM,0.0005637,225
mp-977445,Nd2ZnIr,-0.478386341249999,0.054365950982144,0.0,False,NM,0.0008508999999990001,225
mp-1186258,Nd2ZnRu,-0.224146188749998,0.039038878750000006,0.0,False,NM,2.5200000000000003e-05,225
mp-1209966,Nd3(P3Pd10)2,-0.7010325724261041,0.0,0.0,False,NM,2e-07,225
mp-1209902,Nd3(Si3Pd10)2,-0.803923050775861,0.0,0.0,False,NM,0.0,225
mp-1196005,Nd3Si11Pt23,-0.884613616824323,0.0,0.0,False,NM,0.540538899999999,225
mp-1209983,Nd4CdIr,-0.43796784208333306,0.0,0.0,False,NM,2.4200000000000002e-05,216
mp-1210076,Nd4CdNi,-0.233335300416664,0.0,0.0337,False,NM,3e-07,216
mp-1209976,Nd4CdPd,-0.39038037333333303,0.0,0.098899999999999,False,NM,0.0003658,216
mp-1209989,Nd4CdPt,-0.529706413749999,0.0,0.035300000000000005,False,NM,3.2e-06,216
mp-1210019,Nd4MgCo,-0.08782095458333,0.0,0.0,False,NM,9e-06,216
mp-567342,Nd4MgIr,-0.35697305416666203,0.0,0.0,False,NM,2e-06,216
mp-1210038,Nd4MgNi,-0.15150028708332902,0.002543562083336,0.0,False,NM,5.5e-06,216
mp-1210009,Nd4MgPt,-0.44950527458333206,0.0008478983928570001,0.0,False,NM,3.58e-05,216
mp-1210030,Nd4MgRh,-0.335149068749999,0.0,0.0,False,NM,1.1e-06,216
mp-605835,Nd4MgRu,-0.17576083958333202,0.0,0.0,False,NM,2.7300000000000003e-05,216
mp-1220218,Nd5S8,-2.071200510697112,0.22374103117788302,0.0,False,NM,1.0011562,216
mp-1192447,Nd6Mg23C,-0.073258131499999,0.008639248277777001,0.0,False,NM,0.8425009,225
mp-1193759,Nd6Mn16Ni7,0.039829460624257004,0.182396973986326,0.0,True,FiM,53.2488009,225
mp-1192883,Nd6Mn23,0.203166913882282,0.20316691388228403,0.0,True,FiM,32.5030265,225
mp-864892,NdAgAu2,-0.568616172291667,0.011866030044641,0.0,False,NM,4.8e-06,225
mp-864893,NdAgHg2,-0.41674535687499703,0.0,0.0,False,NM,1e-06,225
mp-1186292,NdAlAg2,-0.32325708886466403,0.040360287598041,0.0,False,NM,0.0010400000000000001,225
mp-2602,NdAs,-1.781174519999996,0.0,0.0,False,NM,1e-07,225
mp-975073,NdAu3,-0.6357014293750001,0.042551942995864005,0.0,False,NM,2e-07,225
mp-1004756,NdB12,-0.217630734423077,0.07411886807692,0.0,False,NM,0.0,225
mp-23300,NdBi,-0.9420215337500041,0.0,0.0,False,NM,1.2e-06,225
mp-977565,NdBiAu2,-0.611393799374999,0.044731983018021004,0.0,False,NM,9.83e-05,225
mp-1008858,NdBiPd,-0.9460851791666641,0.0,0.10510000000000001,False,NM,0.0,216
mp-1186296,NdCd3,-0.278589096874998,0.0,0.0,False,NM,2.899999999999999e-06,225
mp-1186295,NdCdAg2,-0.267994552708331,0.0,0.0,False,NM,5.7900000000000005e-05,225
mp-977562,NdCdAu2,-0.6396255943750021,0.0,0.0,False,NM,1.55e-05,225
mp-1186298,NdCdHg2,-0.400843728125001,0.0,0.0,False,NM,3e-07,225
mp-1077379,NdCdNi4,-0.27606414958333203,0.0,0.0,True,FiM,0.797313899999999,216
mp-977557,NdCdPd2,-0.6324551068749981,0.028773304374999004,0.0,False,NM,0.001402499999999,225
mp-1077428,NdCu4Ag,-0.176990853749998,0.0,0.0,False,NM,2e-07,216
mp-1186359,NdDyIn2,-0.605512615624999,0.008381792916654,0.0,False,NM,2.75e-05,225
mp-866063,NdDyMg2,-0.07710090729166501,0.0,0.0,False,NM,9.06e-05,225
mp-975528,NdDyTl2,-0.35454964645833204,0.0,0.0,False,NM,6.390000000000004e-05,225
mp-1186297,NdDyZn2,-0.322062482291665,0.005751747499997,0.0,False,NM,0.0073536,225
mp-975442,NdErIn2,-0.5839707902083291,0.006894682500000001,0.0,False,NM,4.89e-05,225
mp-974517,NdErMg2,-0.07431431437499801,0.0002775375,0.0,False,NM,6.560000000000002e-05,225
mp-974523,NdErTl2,-0.342081426041669,0.0031136925,0.0,False,NM,0.0001326,225
mp-974638,NdErZn2,-0.324655066875,0.009841559999998,0.0,False,NM,0.0013137,225
mp-1521261,NdEu2NbO6,-3.214158502750003,0.18760152076666903,0.6566999999999991,True,FM,13.9999997,225
mp-1517747,NdEu2SbO6,-2.876796370750001,0.267882788166671,0.323599999999999,True,FM,13.9999308,225
mp-1205599,NdEu2TaO6,-3.342785365483334,0.13625326837500001,1.2522,True,FM,14.0425546,225
mp-1186310,NdEuAg2,-0.26636950812499904,0.028045937500003,0.0,True,FM,7.2694509,225
mp-1220180,NdEuB12,-0.55773304732143,0.0,0.0,True,FM,6.7526169,225
mp-1518805,NdEuHfCrO6,-3.31863520425,0.12653587758333001,0.021500000000000002,True,FM,10.0000783,216
mp-1520929,NdEuHfFeO6,-3.136449568249999,0.21059409625000003,0.0,True,FM,11.8536617,216
mp-1519733,NdEuHfMnO6,-3.184998447043104,0.27225529324999903,0.0,True,FM,11.000005,216
mp-1521819,NdEuHfTiO6,-3.545312715583333,0.145041442583353,0.0,True,FM,6.6793737,216
mp-1186311,NdEuHg2,-0.584440166874998,0.000769462500002,0.0,True,FM,7.2609704,225