material_id,formula,formation_energy,ehull,band_gap,is_magnetic_x,magnetic_ordering,total_magnetization_x,spacegroup,heusler_type,is_magnetic_y,total_magnetization_y
mp-977356,ZnGaIr2,-0.423143706249998,0.0,0.0,False,NM,2.299999999999998e-06,225,full,False,2.299999999999998e-06
mp-1187935,ZnGaNi2,-0.334997109374999,0.0,0.0,False,NM,3e-07,225,full,False,3e-07
mp-977362,ZnGaRh2,-0.616016989374998,0.0,0.0,False,NM,2.499999999999999e-06,225,full,False,2.499999999999999e-06
mp-1187920,ZnGeRh2,-0.517830203749998,0.0,0.0,False,NM,2e-07,225,full,False,2e-07
mp-1187916,ZnInPd2,-0.513127646666665,0.020864187499999,0.0,False,NM,1.1e-06,225,full,False,1.1e-06
mp-1187922,ZnInRh2,-0.491777063749999,0.0,0.0,False,NM,1.58e-05,225,full,False,1.58e-05
mp-16358,ZnNi2Ge,-0.236881766249999,0.043090038124999,0.0,False,NM,9.03e-05,225,full,False,9.03e-05
mp-11621,ZnNiSb,-0.295538423333332,0.0,0.0,False,NM,0.0,216,half,False,0.0
mp-977383,ZnPd2Au,-0.336700667499998,0.016720051250002,0.0,False,NM,1e-07,225,full,False,1e-07
mp-1187921,ZnRu2W,-0.128180139999997,0.0,0.0,False,NM,2.8300000000000003e-05,225,full,False,2.8300000000000003e-05
mp-1206365,ZnSiNi2,-0.347605812499999,0.0812169625,0.0,False,NM,0.000363,225,full,False,0.000363
mp-1064667,ZnSiP2,0.405204674761904,0.796861516249999,0.0,False,NM,6.21e-05,225,full,False,6.21e-05
mp-977384,ZnSiRh2,-0.6848659674999981,0.0,0.0,False,NM,0.0,225,full,False,0.0
mp-1187939,ZnSnRh2,-0.486263736249997,0.0,0.0,False,NM,0.0001091,225,full,False,0.0001091
mp-631349,ZnTcMo,0.680993743412704,0.740825499523811,0.0,True,FM,0.183634499999999,216,half,True,0.183634499999999
mp-972327,Zr2CoOs,-0.531107747499998,0.0,0.0,True,FM,1.1488543,225,full,True,1.1488543
mp-864896,Zr2CoTc,-0.389741042500002,0.0,0.0,True,FM,0.6272337,225,full,True,0.6272337
mp-864897,Zr2CuOs,-0.341574647499999,0.0,0.0,False,NM,6.53e-05,225,full,False,6.53e-05
mp-1187940,Zr2CuRe,-0.214053775624998,0.024603215026925,0.0,False,NM,0.000762499999999,225,full,False,0.000762499999999
mp-1232423,Zr2CuTc,-0.269826008749999,0.0,0.0,False,NM,3.8400000000000005e-05,225,full,False,3.8400000000000005e-05
mp-1187977,Zr2FeOs,-0.364442214999996,0.008808510446431,0.0,False,NM,0.0024989,225,full,False,0.0024989
mp-1187984,Zr2FeTc,-0.278902363749999,0.0,0.0,False,NM,3.88e-05,225,full,False,3.88e-05
mp-977549,Zr2OsRu,-0.713463296250004,0.0,0.0,False,NM,2.299999999999998e-06,225,full,False,2.299999999999998e-06
mp-1188019,Zr2ReRh,-0.5500684131250021,0.010191826099994,0.0,False,NM,1.699999999999999e-06,225,full,False,1.699999999999999e-06
mp-1188001,Zr2TcIr,-0.8171731149999991,0.0,0.0,False,NM,4.9000000000000005e-06,225,full,False,4.9000000000000005e-06
mp-1188020,Zr2TcNi,-0.389061736249999,0.0,0.0,False,NM,0.0001316,225,full,False,0.0001316
mp-1188002,Zr2TcOs,-0.585212774999998,0.0,0.0,False,NM,1.76e-05,225,full,False,1.76e-05
mp-977578,Zr2TcPd,-0.561379077499999,0.0,0.0,False,NM,8e-07,225,full,False,8e-07
mp-1188004,Zr2TcRh,-0.717358112499997,0.0,0.0,False,NM,5.42e-05,225,full,False,5.42e-05
mp-1188003,Zr2TcRu,-0.605694131249999,0.0,0.0,False,NM,4.7e-06,225,full,False,4.7e-06
mp-1064892,Zr2TiAl,-0.177245892916669,0.134377186666664,0.0,True,FM,1.8232338,225,full,True,1.8232338
mp-961701,ZrAgB,0.843246142222222,1.419550030555555,0.0,False,NM,1.8e-06,216,half,False,1.8e-06
mp-631561,ZrAgMo,0.9523461230555532,1.064841768888889,0.0,True,FM,0.589221,216,half,True,0.589221
mp-864878,ZrAlAu2,-0.594448286249999,0.025075315555547,0.0,False,NM,9e-07,225,full,False,9e-07
mp-3909,ZrAlCo2,-0.5084106925,0.0,0.0,True,FiM,0.9997090999999992,225,full,True,0.9997090999999992
mp-3736,ZrAlCu2,-0.352965232499999,0.003109615137613,0.0,False,NM,2.4e-06,225,full,False,2.4e-06
mp-3944,ZrAlNi2,-0.5980511674999931,0.0,0.0,False,NM,4.1e-05,225,full,False,4.1e-05
mp-541047,ZrAlPd2,-0.803114597499998,0.0,0.0,False,NM,3e-06,225,full,False,3e-06
mp-977435,ZrAlRh2,-0.9449341024999992,0.0,0.0,False,NM,0.0007319,225,full,False,0.0007319
mp-977436,ZrAlRu2,-0.7510221812500001,0.0,0.0,False,NM,3.8e-05,225,full,False,3.8e-05
mp-631503,ZrAlW,0.683934473333323,1.06139110916667,0.0,False,NM,0.0278634,216,half,False,0.0278634
mp-1093990,ZrAsIr,-0.397833649166667,0.50882019,0.0,False,NM,1.55e-05,216,half,False,1.55e-05
mp-1093991,ZrAsIr,-0.9066538391666672,0.0,0.269499999999999,False,NM,0.0,216,half,False,1.55e-05
mp-961720,ZrAsRh,-0.354964272499999,0.522254106000002,0.0,False,NM,1.72e-05,216,half,False,1.72e-05
mp-631518,ZrBTe,0.626906049166665,1.694497985000001,0.0,False,NM,0.528797899999999,216,half,False,0.528797899999999
mp-631509,ZrBeCd,0.7948190983333341,0.945003952666668,0.0,False,NM,0.000217899999999,216,half,False,0.000217899999999
mp-961724,ZrBiRh,-0.002021966666667,0.533070209999994,0.0,False,NM,6.9e-06,216,half,False,6.9e-06
mp-1188009,ZrCdAg2,-0.101971911249999,0.0,0.0,False,NM,3.83e-05,225,full,False,3.83e-05
mp-977462,ZrCdAu2,-0.5182462562500021,0.0,0.0,False,NM,2e-06,225,full,False,2e-06
mp-11293,ZrCdCu2,-0.138523232499998,0.0,0.0,False,NM,5.9e-06,225,full,False,5.9e-06
mp-864607,ZrCdPd2,-0.577488087499999,0.0,0.0,False,NM,2e-06,225,full,False,2e-06
mp-977537,ZrCdRh2,-0.691710256249997,0.0,0.0,False,NM,1e-07,225,full,False,1e-07
mp-22503,ZrCo2Sn,-0.382182983749999,0.0,0.0,True,FiM,2.0011444,225,full,True,2.0011444
mp-961689,ZrCoAs,-0.0266891025,0.7311625150000021,0.0,True,FM,1.154692,216,half,True,1.154692
mp-31451,ZrCoBi,-0.412615006666669,0.0,0.9771999999999992,False,NM,0.0,216,half,False,0.0
mp-22377,ZrCoSb,0.069383304166656,0.6092560841666661,0.0,True,FM,0.2905716,216,half,True,0.2905716
mp-631429,ZrCrFe,0.7330680966666651,0.8896256716666691,0.0,True,FiM,0.5976135,216,half,True,0.5976135
mp-981312,ZrCu2Hg,-0.116833308125001,0.024721291568626,0.0,False,NM,6.87e-05,225,full,False,6.87e-05
mp-1100435,ZrCuB,-0.232989903055556,0.342317545256412,0.259199999999999,False,NM,0.0012553,216,half,False,0.0012553
mp-30583,ZrCuHg2,0.045080726249996,0.157541418909311,0.0,False,NM,0.000752499999999,216,full,False,0.000752499999999
mp-961652,ZrFeSb,-0.5048053033333331,0.039509989166663,0.0,True,FiM,0.9979808,216,half,True,0.9979808
mp-961651,ZrFeSe,-0.6915341807812501,0.363347016666663,0.0922,False,NM,4.3700000000000005e-05,216,half,False,4.3700000000000005e-05
mp-961649,ZrFeTe,-0.6725309055555551,0.066550033333336,1.155800000000001,False,NM,4.35e-05,216,half,False,4.35e-05
mp-1188052,ZrGaCo2,-0.429421736875,0.0,0.0,True,FiM,1.0158243,225,full,True,1.0158243
mp-22580,ZrGaNi2,-0.529860206875,0.016642819502688,0.0,False,NM,0.0002241,225,full,False,0.0002241
mp-972183,ZrGaPd2,-0.7535287812500001,0.021978819652773,0.0,False,NM,1.1e-06,225,full,False,1.1e-06
mp-1188021,ZrGaRh2,-0.831962264375,0.0,0.0,False,NM,0.0004326,225,full,False,0.0004326
mp-1188059,ZrGaRu2,-0.6067835137500021,0.0,0.0,False,NM,0.000183,225,full,False,0.000183
mp-961681,ZrGePt,-0.472756888333331,0.607130889166668,0.0,False,NM,7.87e-05,216,half,False,7.87e-05
mp-977443,ZrGeRu2,-0.671283388750001,0.0,0.0,False,NM,3e-07,225,full,False,3e-07
mp-961693,ZrInAu,-0.624336455,0.0,0.4412,False,NM,0.0,216,half,False,0.0
mp-581707,ZrInAu2,-0.531840506249999,0.02952319083333,0.0,False,NM,3e-07,225,full,False,3e-07
mp-1188066,ZrInCo2,-0.264607108749999,0.008770347797621,0.0,True,FiM,1.1162828,225,full,True,1.1162828
mp-623134,ZrInCu2,-0.219306701666666,0.0,0.0,False,NM,1e-07,225,full,False,1e-07
mp-20744,ZrInNi2,-0.403846524166666,0.0,0.0,False,NM,0.0001668,225,full,False,0.0001668
mp-977475,ZrInPd2,-0.7542684887499961,0.0,0.0,False,NM,0.0,225,full,False,0.0
mp-571310,ZrInPt2,-0.9329200487215772,0.046393768068178,0.0,False,NM,0.000232,225,full,False,0.000232
mp-977543,ZrInRh2,-0.823157238749995,0.0,0.0,False,NM,0.0108249,225,full,False,0.0108249
mp-1188022,ZrMnRh2,-0.569834949482757,0.0,0.0,True,FM,4.9442069,225,full,True,4.9442069
mp-977534,ZrNbTc2,-0.415688663749999,0.0,0.0,False,NM,1.1e-05,225,full,False,1.1e-05
mp-19904,ZrNi2Sb,-0.459393537499999,0.1461869025,0.0,False,NM,0.0006988,225,full,False,0.0006988
mp-19877,ZrNi2Sn,-0.496977091249999,0.048818432421874,0.0,False,NM,4.1900000000000016e-05,225,full,False,4.1900000000000016e-05
mp-31452,ZrNiBi,-0.307924750000001,0.070895982240739,0.0,False,NM,2.63e-05,216,half,False,2.63e-05
mp-961662,ZrNiGe,0.042624608333332,0.829041213333333,0.0,False,NM,0.014860199999999,216,half,False,0.014860199999999
mp-30806,ZrNiSn,0.074641914999999,0.758842256666666,0.0,False,NM,0.0035501,216,half,False,0.0035501
mp-568470,ZrNiSn,0.205303511666667,0.889503853333333,0.0,False,NM,0.0411833,216,half,False,0.0035501
mp-924129,ZrNiSn,-0.6842003416666651,0.0,0.4954,False,NM,0.0,216,half,False,0.0035501
mp-1188046,ZrPaTc2,-0.349984076249995,0.0,0.0,False,NM,1.899999999999999e-06,225,full,False,1.899999999999999e-06
mp-961709,ZrPtPb,-0.21671589666667,0.604310049999995,0.0,False,NM,0.000197,216,half,False,0.000197
mp-1100415,ZrSbRh,-1.1401938883333331,0.0,1.1648,False,NM,0.0,216,half,False,0.0
mp-1206984,ZrSbRh,-0.293743454999997,0.846450433333334,0.0,False,NM,0.000357,216,half,False,0.0
mp-31457,ZrSbRu,-0.667661066666667,0.0,0.0,False,NM,0.0001982,216,half,False,0.0001982
mp-1188015,ZrSbRu2,-0.487199233750001,0.013546566249999,0.0,True,FM,0.9997821,225,full,True,0.9997821
mp-1188031,ZrScCo2,-0.350454457500001,0.0,0.0,True,FiM,1.2740768,225,full,True,1.2740768
mp-977550,ZrScOs2,-0.480746043749999,0.0,0.0,False,NM,1e-07,225,full,False,1e-07
mp-1188014,ZrScRu2,-0.6527175162499981,0.0,0.0,False,NM,5.6e-06,225,full,False,5.6e-06
mp-1188017,ZrScTc2,-0.223822253749999,0.015365562291668,0.0,False,NM,4.5e-06,225,full,False,4.5e-06
mp-961661,ZrSiPd,-0.800975419166675,0.246639388333324,0.3147,False,NM,0.0006144,216,half,False,0.0006144
mp-961711,ZrSiPt,-1.100889041666666,0.147213406666669,1.026599999999999,False,NM,0.005823399999999,216,half,False,0.005823399999999
mp-1183042,ZrSiRu2,-0.7984018825000021,0.0,0.2353,False,NM,0.0,225,full,False,0.0
mp-22689,ZrSnPd,-0.337737558333339,0.531824843333332,0.149099999999999,False,NM,0.000517,216,half,False,0.000517
mp-961687,ZrSnPd,-0.8695624016666691,0.0,0.1251,False,NM,0.0,216,half,False,0.000517
mp-977568,ZrSnPd2,-0.752581591250002,0.049673133333332,0.0,False,NM,4e-06,225,full,False,4e-06
mp-961713,ZrSnPt,-1.167385201666666,0.0,0.9627999999999992,False,NM,0.0,216,half,False,0.0
mp-864947,ZrSnRh2,-0.7407130362499981,0.0,0.0,False,NM,0.0002613,225,full,False,0.0002613
mp-1183048,ZrSnRu2,-0.6605679037500031,0.0,0.0,False,NM,2.899999999999999e-06,225,full,False,2.899999999999999e-06
mp-1183039,ZrTaTc2,-0.491007990583334,0.0,0.0,False,NM,1.2e-06,225,full,False,1.2e-06
mp-977545,ZrTc2W,-0.311339616250002,0.0,0.0,False,NM,5.4e-06,225,full,False,5.4e-06
mp-631405,ZrTcCl,0.474628285416663,1.5950654304166672,0.0,False,NM,0.0014184,216,half,False,0.0014184
mp-1183037,ZrZnAu2,-0.519295450000001,0.0,0.0,False,NM,5.4e-06,225,full,False,5.4e-06
mp-1183041,ZrZnCo2,-0.262473025000001,0.0,0.0,False,NM,7e-07,225,full,False,7e-07
mp-11366,ZrZnCu2,-0.221621480000001,0.0,0.0,False,NM,5e-07,225,full,False,5e-07
mp-1183038,ZrZnIr2,-0.7596843924999981,0.0,0.0,False,NM,9e-07,225,full,False,9e-07
mp-1100781,ZrZnNi2,-0.392775890000001,0.009448021249999,0.0,False,NM,0.0009876,225,full,False,0.0009876
mp-1100780,ZrZnPd2,-0.6439205999999951,0.0,0.0,False,NM,3.7e-06,225,full,False,3.7e-06
mp-1100779,ZrZnPt2,-0.8194837525,0.024390971898499,0.0,False,NM,0.001276099999999,225,full,False,0.001276099999999
mp-977582,ZrZnRh2,-0.8502513425000011,0.0,0.0,False,NM,4e-07,225,full,False,4e-07