material_id,formula,formation_energy,ehull,band_gap,is_magnetic,magnetic_ordering,total_magnetization,spacegroup
mp-631267,TaFeSb,0.464764864222222,0.6955610400000001,0.0,True,FiM,1.3994701,216
mp-30555,TaGaCo2,-0.345240171208333,0.0,0.0,True,FM,2.0002743,225
mp-867507,TaGaFe2,-0.312452746208333,0.0,0.0597,False,NM,0.0,225
mp-21175,TaGaNi2,-0.35774493433333604,0.002440558104837,0.0,False,NM,2.2e-06,225
mp-867788,TaGaOs2,-0.415546201833329,0.0,0.0,False,NM,2e-07,225
mp-961677,TaGaPt,-0.045416451611110006,0.48354473107142604,0.0,False,NM,0.0009387999999990001,216
mp-867781,TaGaRu2,-0.6504562893333341,0.0,0.0,False,NM,1.4e-06,225
mp-961727,TaGeRh,-0.012095959944441001,0.572116239999999,0.0,False,NM,0.0003872,216
mp-1187233,TaGeRu2,-0.339951169333335,0.046077676120134005,0.0,True,FM,0.9152247,225
mp-24723,TaH2,-0.09981760494444301,0.0,0.0,False,NM,3e-07,225
mp-961692,TaInNi,0.7493166550555561,0.9593527880000001,0.0,False,NM,0.0003741,216
mp-867958,TaInRu2,-0.42126822433333505,0.0,0.0,False,NM,2.499999999999999e-06,225
mp-867120,TaMn2Al,-0.301139298298851,0.0,0.0,True,FiM,2.0006249,225
mp-1187238,TaMn2Ga,-0.14603967907471402,0.073360492187497,0.0,True,FiM,1.9985709999999992,225
mp-863250,TaMn2Ge,-0.204281419548852,0.007110784687499001,0.0,True,FiM,0.9982000000000001,225
mp-961654,TaMnAs,0.40529153907854304,0.774726193055554,0.0,True,FiM,2.119774,216
mp-867811,TaMnRu2,-0.42801105295402303,0.0,0.0,True,FM,4.2074409,225
mp-1009833,TaN,-0.867008554708334,0.491697593333334,0.0,False,NM,0.000342199999999,216
mp-251,TaN,-1.029756374708334,0.32894977333333403,0.0,False,NM,2.9900000000000005e-05,225
mp-1217928,TaNb(Cu3Se4)2,-0.594848794989555,0.001146038749999,1.424,False,NM,0.0012909,216
mp-1187242,TaNbRe2,-0.42086833808333,0.0,0.0,False,NM,1.6e-06,225
mp-972323,TaNbTc2,-0.47445536933333005,0.0,0.0,False,NM,1.1e-06,225
mp-1895,TaO,-1.227449066166666,1.115145125799998,0.0,False,NM,0.000104399999999,225
mp-631364,TaOsPb,0.805066687714277,1.012601295238084,0.0,False,NM,0.000879,216
mp-1100410,TaPRu,-0.009313285936509002,0.8092258691666671,0.0,False,NM,0.0009834,216
mp-631423,TaPbBr,1.162116339222223,1.808804897138889,0.0,False,NM,0.00022319999999900002,216
mp-1187254,TaSb3,0.461804946916668,0.587869215000001,0.0,False,NM,0.000402399999999,225
mp-31454,TaSbRu,-0.46037054744444106,0.0,0.665,False,NM,0.0,216
mp-1187251,TaSiRu2,-0.549483269020839,0.031938650208331004,0.0,True,FM,0.8069002,225
mp-1100408,TaSnRh,-0.44028700411110805,0.0,1.0594,False,NM,0.0,216
mp-867475,TaSnRu2,-0.304171011833332,0.003444711031743,0.0,True,FM,0.934578399999999,225
mp-1187252,TaTc2Ge,-0.35076618683333205,0.015996063625003002,0.0,False,NM,0.0001372,225
mp-632176,TaTcPb2,0.692369155666661,0.9762442325,0.0,False,NM,8.11e-05,216
mp-1187253,TaTi3,0.09749539499999901,0.09749539499999901,0.0,False,NM,0.1958281,225
mp-631484,TaTiAl,0.7705011500000011,1.096006877666667,0.0,True,FM,1.907300499999999,216
mp-1217889,TaTiBe4,-0.15948262511111103,0.048036263214285,0.0,True,FM,1.1914489,216
mp-979751,TaTiFe2,-0.28507192016666605,0.018473990384615002,0.0,True,FiM,1.0032754,225
mp-867821,TaTiMn2,-0.27812618413218304,0.0,0.0,True,FiM,0.6171553,225
mp-867123,TaTiOs2,-0.5868449210000081,0.0,0.0,False,NM,1.6000000000000003e-05,225
mp-867846,TaTiRe2,-0.525172387250002,0.0,0.0,False,NM,0.000121,225
mp-861908,TaTiRu2,-0.6045244860000021,0.0,0.0,False,NM,0.000425,225
mp-861912,TaTiTc2,-0.571864508499999,0.0,0.0,False,NM,5.7e-06,225
mp-961712,TaTlPt,-0.035423306888890005,0.33646140433332805,0.9663,False,NM,0.0012729,216
mp-979289,TaW3,-0.07589145683333201,0.0,0.0,False,NM,3e-07,225
mp-865805,TaZnCo2,-0.21700233183332002,0.0,0.0,True,FiM,1.0450602,225
mp-979291,TaZnOs2,-0.21069035058333402,0.040938130624986004,0.0,False,NM,2.11e-05,225
mp-865804,TaZnRh2,-0.5910538055833351,0.0,0.0,False,NM,2.4800000000000003e-05,225
mp-865234,TaZnRu2,-0.344226414333334,0.0,0.0,False,NM,4.27e-05,225
mp-7163,Tb,0.031530149999998,0.031530149999998,0.0,False,NM,0.0,225
mp-1197394,Tb11Cd45,-0.20904067247023603,0.0,0.0,False,NM,0.5053458,216
mp-979270,Tb2AgIr,-0.5895928137499981,0.022065156793479,0.0,False,NM,0.001578599999999,225
mp-1187272,Tb2CuIr,-0.5766730508333321,0.023550786249996,0.0,False,NM,0.0021289,225
mp-1187276,Tb2InHg,-0.5945378518749961,0.0,0.0,True,FM,0.6508565,225
mp-1187265,Tb2IrAu,-0.8191927308333321,0.017533978571426002,0.0,False,NM,0.0038372,225
mp-867236,Tb2IrPd,-0.8857872158333311,0.0,0.0,False,NM,7e-07,225
mp-867282,Tb2IrRh,-0.843008208333331,0.0,0.0,False,NM,0.000163,225
mp-867291,Tb2IrRu,-0.576044608333332,0.032174813705355,0.0,False,NM,0.0050938,225
mp-1087513,Tb2MnGa6,-0.618765601609194,0.0,0.0,True,FM,2.574366099999999,225
mp-1187264,Tb2NiIr,-0.6262787308333321,0.03273292624999,0.0,False,NM,0.0119688,225
mp-1187271,Tb2PdRh,-0.8609636058333311,0.021709132499999003,0.0,False,NM,7.4e-06,225
mp-1187263,Tb2PdRu,-0.6213292383333311,0.0,0.0,False,NM,7e-07,225
mp-1187274,Tb2RuRh,-0.5864059083333311,0.0,0.0,False,NM,9e-07,225
mp-1187269,Tb2TlHg,-0.41435872979166805,0.0,0.0,True,FM,0.771165299999999,225
mp-1187270,Tb2ZnIr,-0.6180433458333321,0.028760986249997,0.0,False,NM,0.0124253,225
mp-1208495,Tb3(P3Pd10)2,-0.7276208485467991,0.0,0.0,False,NM,0.0,225
mp-1208491,Tb3(SbPd2)4,-0.8363542176666651,0.005442804555556,0.0,False,NM,0.0066186,225
mp-1209278,Tb3Cu20Sb11,-0.216792163970594,0.033034000735280004,0.0,False,NM,0.1021111,216
mp-1187307,Tb3V,0.332461877499998,0.332461877499998,0.0,True,FiM,3.4965284,225
mp-570592,Tb4CdCo,-0.229900901527778,0.0,0.0,False,NM,0.0026439,216
mp-1208463,Tb4CdIr,-0.509928401944446,0.0,0.0,False,NM,2.36e-05,216
mp-1208455,Tb4CdNi,-0.28152589236111203,0.0,0.0604,False,NM,8.740000000000002e-05,216
mp-1208476,Tb4CdPd,-0.43375291111110603,0.0,0.028099999999999,False,NM,4.5e-06,216
mp-1208468,Tb4CdPt,-0.5893934844444431,0.0,0.055600000000000004,False,NM,4.7e-06,216
mp-568366,Tb4CdRh,-0.47575773611111205,0.0,0.0,False,NM,6e-07,216
mp-604378,Tb4InIr,-0.5707537543055571,0.0,0.0,False,NM,0.0009624,216
mp-582119,Tb4InRh,-0.537537530972221,0.0,0.0,False,NM,1.9100000000000003e-05,216
mp-1208464,Tb4MgCo,-0.134089594027779,0.0,0.0,False,NM,0.007293,216
mp-567351,Tb4MgIr,-0.41724964944444404,0.0,0.0,False,NM,2.4e-06,216
mp-1208458,Tb4MgNi,-0.187942350694441,0.0,0.012199999999999002,False,NM,4.599999999999997e-06,216
mp-1208478,Tb4MgRh,-0.38418920111110805,0.0,0.0,False,NM,1.4400000000000001e-05,216
mp-1208484,Tb4MgRu,-0.23077356736111101,0.0,0.0,False,NM,2.3500000000000002e-05,216
mp-1217735,Tb5(Sn3Rh)6,-0.5402879794252861,0.023379586810346003,0.0,False,NM,0.0705108,216
mp-1192934,Tb6Cu23,-0.191758803103449,0.026198204482758003,0.0,False,NM,6e-07,225
mp-1193316,Tb6Fe23,-0.031273151379309,0.013021383103450001,0.0,True,FiM,51.9731243,225
mp-1192517,Tb6Mn23,0.115619643020213,0.115619643020213,0.0,True,FiM,28.7253185,225
mp-1193291,Tb6Zn23,-0.35510606086206703,0.01604571606421,0.0,False,NM,3e-07,225
mp-977387,TbAgHg2,-0.339733660833332,0.0,0.0,False,NM,0.0,225
mp-977394,TbAlAg2,-0.327462222499996,0.005857978824077001,0.0,False,NM,1e-07,225
mp-971985,TbAlCu2,-0.377235755,0.028690801874997004,0.0,False,NM,0.0,225
mp-2640,TbAs,-1.819632861250003,0.0,0.0,False,NM,1e-07,225
mp-1104066,TbB12,-0.263792412307692,0.0,0.0,False,NM,0.0,225
mp-22921,TbBi,-1.1017431275,0.0,0.0,False,NM,2e-07,225
mp-1207177,TbBiPd,-1.059290718333334,0.0,0.0,False,NM,3e-07,216
mp-1100767,TbBiPd2,-0.807335703333322,0.077716407916668,0.0,False,NM,0.00014089999999900002,225
mp-1206989,TbBiPt,-1.188158791666666,0.0,0.0,False,NM,2e-07,216
mp-977398,TbCdAg2,-0.27177375999999803,0.0,0.0,False,NM,1.5300000000000003e-05,225
mp-977376,TbCdAu2,-0.661868024166665,0.0,0.0,False,NM,1.8e-06,225
mp-1100768,TbCdHg2,-0.363862655416667,0.0,0.0,False,NM,1e-07,225
mp-1077082,TbCdNi4,-0.34196680111111105,0.0,0.0,True,FiM,0.734013399999999,216
mp-977397,TbCdPd2,-0.7158241566666651,0.0,0.0,False,NM,1e-07,225
mp-1187326,TbCdPt2,-0.802025196666669,0.019922031250000003,0.0,False,NM,1.0100000000000002e-05,225
mp-864615,TbCdRh2,-0.542790604166663,0.008990917500002001,0.0,False,NM,5.799999999999999e-06,225
mp-777760,TbCeO4,-3.539333601944443,0.08349661031250301,0.0,True,FM,4.0028849,216
mp-1072264,TbCu4Ag,-0.23125080305554901,0.0,0.0,False,NM,2e-07,216
mp-1077752,TbCu4Au,-0.33870220111111105,0.0,0.0,False,NM,1e-05,216
mp-1206691,TbCu4Pd,-0.367803625,0.0,0.0,False,NM,1e-07,216
mp-1077262,TbCu5,-0.178495648333334,0.023863658333333003,0.0,False,NM,0.0001229,216
mp-1217558,TbDyAl4,-0.588590385833335,0.00033752041666600005,0.0,False,NM,3.799999999999998e-06,216
mp-1187327,TbDyHg2,-0.5863101125000011,0.0,0.0,False,NM,5.4e-06,225
mp-1187334,TbDyIn2,-0.6000497612500021,0.002146774687499,0.0,False,NM,4.5e-06,225
mp-1187329,TbDyIr2,-0.8126317795833311,0.0,0.0,False,NM,0.002693799999999,225
mp-1187335,TbDyRh2,-0.85642913208333,0.0083057375,0.0,False,NM,6.170000000000001e-05,225
mp-1187333,TbErHg2,-0.577425312083335,0.0,0.0,False,NM,2e-06,225
mp-1187336,TbErIn2,-0.580089440833333,0.0,0.0,False,NM,1.46e-05,225
mp-1187345,TbErIr2,-0.846996966666664,0.01394670982143,0.0,False,NM,0.0022604,225
mp-1187337,TbErRh2,-0.8882311941666651,0.010566534999998,0.0,False,NM,0.0007007,225
mp-1519127,TbEu2GeO6,-3.020643271166667,0.21072492145312202,0.0,True,FM,13.0000003,225
mp-1519872,TbEu2NbO6,-3.332583488666666,0.11536205068751001,0.2766,True,FM,14.0000004,225
mp-1518951,TbEu2SbO6,-2.979610679666668,0.20547355857500002,0.22050000000000003,True,FM,14.0000004,225
mp-1520549,TbEu2SnO6,-2.916879056166667,0.30309747185937,0.0,True,FM,13.0000004,225
mp-1205605,TbEu2TaO6,-3.4571722674,0.07202479943750001,0.780999999999999,True,FM,14.0206698,225
mp-1520112,TbEu2VO6,-3.119511784666668,0.24888887150000003,0.0,True,FM,14.0036146,225
mp-1187411,TbEuRh2,-0.555818077916667,0.06516248362499501,0.0,True,FM,6.8022157,225
mp-1187339,TbGaAu2,-0.657128586041666,0.029749785178571003,0.0,False,NM,0.0010405,225
mp-977421,TbGaRh2,-0.7944247385416641,0.0,0.0,False,NM,1e-07,225
mp-1187524,TbGdIr2,-0.772605531666666,0.0,0.0,True,FiM,6.7076493,225
mp-1187363,TbGdRh2,-0.8178378616666651,0.008760519999999,0.0,True,FM,7.022442,225
mp-24724,TbH2,-0.8003036291666681,0.0,0.0,False,NM,2.32e-05,225
mp-999123,TbH3,-0.6443553765625011,0.07787709416666601,0.0,False,NM,0.0,225
mp-1217470,TbHoAl4,-0.585313989166666,0.0006881866666660001,0.0,False,NM,4e-07,216
mp-1217482,TbHoCo4,-0.17885704194444202,0.004314974166667001,0.0,True,FiM,4.074792,216
mp-1217473,TbHoFe4,-0.073752651944441,0.0016672183333360001,0.0,True,FiM,7.5989024,216
mp-1187344,TbHoHg2,-0.5831264300000001,0.0,0.0,False,NM,1.3400000000000002e-05,225
mp-1187346,TbHoIn2,-0.448214126249998,0.0,0.0,False,NM,4.2e-06,225
mp-1187351,TbHoIr2,-0.827672947916664,0.011882892321429,0.0,False,NM,0.0007226,225
mp-1187348,TbHoRh2,-0.870020495416663,0.009145395,0.0,False,NM,0.0002755,225
mp-22382,TbInAg2,-0.363992091666665,0.0,0.0,False,NM,1.18e-05,225
mp-567210,TbInAu2,-0.7040339158333341,0.0,0.0,False,NM,5.6e-06,225
mp-22685,TbInCu2,-0.37795022250000004,0.031389390000015005,0.0,False,NM,1.3e-06,225
mp-22229,TbInCu4,-0.312193425000001,0.0,0.0,False,NM,0.0,216
mp-864808,TbInPd2,-0.871790045,0.0,0.0,False,NM,1.6e-06,225
mp-1024984,TbInPt4,-0.8987403833333281,0.033494827410720004,0.0,False,NM,1.5e-06,216
mp-864876,TbInRh2,-0.7320021133333301,0.0,0.0,False,NM,3.9e-06,225
mp-979287,TbLuHg2,-0.568053120416671,0.0,0.0,False,NM,1.5e-06,225
mp-1187340,TbLuIn2,-0.5536789641666641,0.016600485324058,0.0,False,NM,1.38e-05,225
mp-1187371,TbLuIr2,-0.8827540983333341,0.023242657321427003,0.0,False,NM,0.1944486,225
mp-1187357,TbLuRh2,-0.9229695683333321,0.016975972499999003,0.0,False,NM,0.0007762,225
mp-1206656,TbMg2Cu,0.068705230833333,0.20994999946428602,0.0,False,NM,0.0001202,225
mp-7381,TbMg3,-0.056084945416665005,0.0,0.0,False,NM,1e-07,225
mp-866068,TbMgAu2,-0.768527832916666,0.0,0.0,False,NM,0.0,225
mp-862767,TbMgCd2,-0.28371526541666403,0.0,0.0,False,NM,1.2e-06,225
mp-1070837,TbMgCo4,-0.11919355694444501,0.0,0.0,True,FiM,5.422425,216
mp-867234,TbMgHg2,-0.45184054916667105,0.0,0.0,False,NM,1.8e-06,225
mp-977396,TbMgRh2,-0.688818790416665,0.0,0.0,False,NM,2.4e-06,225
mp-1187355,TbMgTl2,-0.20324098208333602,0.039553656388889004,0.0,False,NM,0.001963,225
mp-1187349,TbMgZn2,-0.34128748291666505,0.0,0.0,False,NM,1.1e-06,225
mp-546339,TbMn2BiO6,-1.687390461252874,0.7485278754999971,0.0,True,FM,9.9998893,225
mp-2117,TbN,-1.9769477293750022,0.0,0.013399999999999001,False,NM,0.0,225
mp-1187353,TbNbRu2,-0.260804056666664,0.009487480442711001,0.0,False,NM,0.00017559999999900003,225
mp-1217492,TbNdCo4,-0.05453828902777701,0.057024246287883,0.0,True,FiM,4.0126675,216
mp-1217484,TbNdFe4,0.23970032263889002,0.275382030972225,0.0,True,FiM,0.6665407,216
mp-1077552,TbNi4Au,-0.37928236944444405,0.0,0.0,True,FM,0.221463499999999,216
mp-1206686,TbNiBi,-0.674196568888888,0.0,0.23010000000000003,False,NM,0.0,216
mp-3716,TbNiSb,-0.9653757055555541,0.0,0.330999999999999,False,NM,0.0,216
mp-2458,TbO2,-3.187126932222221,0.131357295625001,0.0,True,FM,0.999713899999999,225
mp-645,TbP,-1.857639228988098,0.0,0.0,False,NM,0.0,225
mp-30413,TbPbAu,-0.685950168888892,0.0,0.0,False,NM,2e-07,216
mp-1206368,TbPd2Pb,-0.6969449091666641,0.006631775624996001,0.0,False,NM,5.299999999999997e-06,225
mp-1187370,TbPmIr2,-0.6991896885416701,0.0,0.0,True,FiM,0.358106,225
mp-980059,TbPmRh2,-0.7574044885416661,0.0,0.0,False,NM,2.05e-05,225
mp-1217477,TbPrFe4,0.269983888611111,0.305665596944447,0.0,True,FiM,0.6700817,216
mp-1217499,TbPrMn4,0.241226533879306,0.241226533879306,0.0,True,FiM,7.4159713,216
mp-1187367,TbRh2Pb,-0.545043904166665,0.0067376175,0.0,True,FM,0.8939436,225
mp-1610,TbS,-2.27145201640625,0.0,0.0,False,NM,5.7e-06,225
mp-2724,TbSb,-1.38852095,0.0,0.0,False,NM,0.0,225
mp-16313,TbSbPt,-1.381467409999999,0.0,0.09680000000000001,False,NM,0.0,216
mp-1561,TbSe,-1.9973161245052091,0.0,0.0,False,NM,7e-07,225
mp-971921,TbSmHg2,-0.5736269887500001,0.0,0.0,False,NM,0.0,225
mp-981213,TbSmIr2,-0.7216893579166661,0.039500483642854,0.0,False,NM,0.00017989999999900002,225
mp-1187376,TbSmRh2,-0.7780096779166641,0.01156061,0.0,False,NM,1.0300000000000001e-05,225
mp-864599,TbSnAu2,-0.698085210416664,0.0,0.0,False,NM,8.5e-06,225
mp-5385,TbSnPd2,-0.8678104079166731,0.0,0.0,False,NM,7e-07,225
mp-864600,TbSnRh2,-0.7767526179166651,0.0,0.0,False,NM,0.0064442,225
mp-1187383,TbSnRu2,-0.337575290416666,0.025733888854166,0.0,False,NM,0.0006345999999990001,225
mp-1187380,TbTa3,0.41255682249999304,0.41255682249999304,0.0,False,NM,0.0063779,225
mp-1187381,TbTaRu2,-0.324069898499999,0.0,0.0,False,NM,3.7800000000000004e-05,225
mp-1176,TbTe,-1.536101655000003,0.013750509999997001,0.0,False,NM,1.2e-06,225
mp-978907,TbTlAg2,-0.23515822833333302,0.019298539420291,0.0,False,NM,4.299999999999999e-06,225
mp-978988,TbTmHg2,-0.577128541249997,0.0,0.0,False,NM,2.299999999999998e-06,225
mp-1187384,TbTmIn2,-0.574172637500002,0.009203401435161001,0.0,False,NM,5.7e-06,225
mp-1187388,TbTmIr2,-0.8606290291666661,0.016837124821430002,0.0,True,FM,0.218838099999999,225
mp-978908,TbTmRh2,-0.9015221441666671,0.012662979999998,0.0,False,NM,4.299999999999999e-06,225
mp-978911,TbYHg2,-0.590041426250003,0.0,0.0,False,NM,6e-07,225
mp-978912,TbYIr2,-0.7891073716666651,0.010549599821429001,0.0,True,FiM,0.2674033,225
mp-978910,TbYRh2,-0.832463396666664,0.00830488,0.0,False,NM,3.6e-06,225
mp-978975,TbYTl2,-0.34817149083333904,0.0,0.0,False,NM,0.0002392,225
mp-865254,TbYbHg2,-0.577637395000003,0.0,0.0,False,NM,3.9e-06,225
mp-1187378,TbYbPd2,-0.9502917662500001,0.032894240625001,0.0,False,NM,1.2e-06,225
mp-972424,TbYbPt2,-1.355620461249998,0.07645784624999401,0.0,False,NM,1e-07,225
mp-865258,TbYbRh2,-0.9868328687499991,0.018321357499999,0.0,False,NM,0.0,225
mp-1187382,TbZnRh2,-0.6357268541666651,0.009016595,0.0,False,NM,1.2e-06,225
mp-8638,Tc,0.073442249999999,0.073442249999999,0.0,False,NM,2.39e-05,225
mp-1205850,Tc(Br3N)2,0.573386227222222,0.9701407458333371,0.0,True,FiM,4.7082573,225
mp-1079026,Tc(Br3O)2,0.544638631666666,1.228755871468253,0.0,False,NM,0.010621499999999002,225
mp-1205939,Tc(NCl3)2,0.553840451249996,1.045949534027782,0.0,True,FiM,4.9998379,225
mp-1187385,Tc3Ge,0.021715405000001003,0.10460257862499801,0.0,True,FM,1.3120896,225
mp-972237,Tc3H,0.6244936446093761,0.6696415424999991,0.0,True,FM,0.5675633,225
mp-1187394,Tc3Sn,0.22304214249999502,0.22304214249999502,0.0,False,NM,0.0054611,225
mp-1187392,Tc3Te,0.305518772083335,0.5059884828750001,0.0,True,FM,0.4975978,225
mp-1187399,TcAs3,0.36891780250000306,0.5888451987500001,0.0,False,NM,4.7e-06,225
mp-1002184,TcB,0.68944186965909,1.105684666590908,0.0,False,NM,0.0047319,216
mp-1002187,TcB,-0.038881410340909,0.377361386590909,0.0,False,NM,0.0454974,225
mp-1009837,TcC,0.650621503749999,0.650621503749999,0.0,True,FM,0.4283744,225
mp-1009848,TcC,0.558050383749999,0.558050383749999,0.0,True,FM,1.0003417,216
mp-631320,TcIrOs,0.506931218888884,0.690456679999996,0.0,False,NM,0.0014125,216
mp-1002181,TcN,-0.08000038385416601,0.094718668333332,0.0,False,NM,0.0077819,216
mp-1002182,TcN,0.37028458614583504,0.5450036383333341,0.0,False,NM,2.299999999999998e-06,225
mp-1062817,TcN2,0.6116609524305521,0.7281403205555531,0.0,True,FM,0.391949,225
mp-631523,TcNiW,0.6658518000000031,0.731772534444441,0.0,False,NM,0.008898699999999002,216
mp-631366,TcSnSe,0.857410703229165,1.189215934166668,0.0,True,FM,1.3103497,216
mp-1079732,Te(Br3N)2,0.646723954814814,1.098209632083334,0.0,True,FM,6.0811967,225
mp-723393,Te(NCl3)2,0.722678151249995,1.07810487263889,0.706199999999999,True,FM,6.000154,225
mp-1193776,Te5Pd21,0.007184122770468,0.22451665838461202,0.0,False,NM,0.007512299999999,216
mp-10051,TeAs,0.0895561775,0.090813455833334,0.0,False,NM,0.0084145,225
mp-1061865,TeN2,1.522047584444443,1.522047584444443,0.0,False,NM,0.0001277,225
mp-1178936,TeO6,0.12919255047619002,0.8958674899999991,0.0,True,FM,5.9997538,225
mp-631398,TeOsCl2,0.6673728146874921,1.097054236562499,0.0,False,NM,0.0008144,216
mp-19717,TePb,-0.503829899999999,0.0,0.8063,False,NM,0.0,225
mp-2530518,TePd3,-0.21262478773387203,0.058985558999996,0.0,False,NM,0.0,225
mp-1190964,TePd4,0.0009076493032300001,0.225477226400002,0.0,False,NM,0.1572516,216
mp-631365,TeRuPb,1.096769016666665,1.432655616666664,0.0,False,NM,0.015124499999999002,216
mp-631381,TeRuSe,0.8489538203124971,1.31376888208333,0.0,False,NM,1.16e-05,216
mp-1388058,TeWO6,-1.704732234583332,0.06153864078125001,1.2512,False,NM,5.2600000000000005e-05,225
mp-37,Th,0.0,0.0,0.0,False,NM,1.899999999999999e-06,225
mp-865224,Th2BiTe,-0.947280731666664,0.0,0.0,False,NM,0.000146,225
mp-1187409,Th2CuTc,-0.07900648374999701,0.049152707500001,0.0,False,NM,5.9100000000000014e-05,225
mp-1187523,Th2SbTe,-1.099127124166662,0.056183660000002,0.0,False,NM,2.7300000000000003e-05,225
mp-980150,Th2ZnTc,-0.17783485736111201,0.047477725833338,0.0,False,NM,0.0021798,225
mp-1194521,Th6Cd23,-0.15460426827585902,0.014682211372129002,0.0,False,NM,1.8707721,225
mp-570442,Th6Mg23,0.028802037413794,0.028802037413794,0.0,False,NM,1.1e-06,225
mp-31222,Th6Mn23,0.055069177502975006,0.055069177502971,0.0,True,FiM,26.8776586,225
mp-1208611,Th6Mn23H44,-0.152467710649503,0.087633181037139,0.0,True,FiM,54.8250833,225
mp-1187401,ThAgHg2,-0.19754011166666702,0.009220462818630001,0.0,False,NM,1.899999999999999e-06,225
mp-1187402,ThAlCu2,-0.264187722499999,0.005349662037036001,0.0,False,NM,2.6200000000000003e-05,225
mp-1753,ThAs,-1.608917741250003,0.0,0.0,False,NM,2.1e-06,225
mp-1187403,ThAu3,-0.619398065000002,0.031080736304343003,0.0,False,NM,2.2e-06,225
mp-12570,ThB12,-0.255651251538462,0.028048350384613,0.0,False,NM,0.0,225
mp-1187467,ThBiAu2,-0.5439881949999991,0.028865748529414002,0.0,False,NM,8.42e-05,225
mp-1164,ThC,-0.43073766499999505,0.0,0.0,False,NM,8e-07,225
mp-867372,ThCdAg2,-0.14431108583333002,0.0,0.0,False,NM,1.9200000000000003e-05,225
mp-867353,ThCdAu2,-0.5885393400000011,0.0,0.0,False,NM,8.3e-06,225
mp-1187437,ThCdCu2,-0.140725809999999,0.018498367954546003,0.0,False,NM,0.00014199999999900002,225
mp-867346,ThCdHg2,-0.28458472625000303,0.0,0.0,False,NM,1.899999999999999e-06,225