material_id,formula,formation_energy,ehull,band_gap,is_magnetic,magnetic_ordering,total_magnetization,spacegroup
mp-1111581,K2TlGaCl6,-1.7399861215333332,0.10910730124999901,2.5197000000000003,False,NM,0.0,225
mp-1111372,K2TlGaF6,-2.806150681533334,0.036165786500001004,4.1618,False,NM,0.001603099999999,225
mp-1111197,K2TlGaI6,-1.026607629533334,0.157794118249997,0.49750000000000005,False,NM,0.0014938999999990002,225
mp-1112026,K2TlHgBr6,-1.289060817033334,0.072846350625001,0.0,False,NM,0.0008200000000000001,225
mp-1112027,K2TlHgCl6,-1.510334895033334,0.06816044074999901,0.0,False,NM,0.027880199999999,225
mp-1111956,K2TlHgF6,-2.295710245033334,0.088153665458332,0.0,False,NM,0.0009903,225
mp-1112024,K2TlHgI6,-0.9416116230333341,0.107324458562499,0.0,False,NM,0.002095199999999,225
mp-1111578,K2TlInBr6,-1.47880849545,0.07564385675,2.1232,False,NM,0.0063906,225
mp-1111577,K2TlInCl6,-1.75523488945,0.044406814499996006,2.5682,False,NM,5.84e-05,225
mp-1111423,K2TlInF6,-2.721125653449999,0.057665794999993004,3.6161,False,NM,0.0005859999999990001,225
mp-1111269,K2TlInI6,-1.07114346745,0.08248647924999901,0.833299999999999,False,NM,0.0010025,225
mp-1111422,K2TlIrF6,-2.275359082783333,0.084775709999999,2.2493,False,NM,0.0001662,225
mp-1111419,K2TlMoF6,-2.689483886783335,0.041906557999999004,3.750599999999999,True,FM,2.9998267,225
mp-1111264,K2TlNiF6,-2.469518316783334,0.09504810385416801,0.0,True,FiM,1.146813,225
mp-1111369,K2TlPdF6,-2.2623155237833332,0.078843336166665,0.0,True,FM,1.0000099,225
mp-1111368,K2TlRhF6,-2.371195808783334,0.004751067416657,1.9609,False,NM,0.0019868,225
mp-1111417,K2TlRuF6,-2.348355317783333,0.039429722980768,0.0,True,FM,0.9997486,225
mp-1111195,K2TlSbBr6,-1.396971674783333,0.043985325250000006,1.1146,False,NM,0.0006468,225
mp-1111196,K2TlSbCl6,-1.649728586783334,0.07046436724999901,1.9155000000000002,False,NM,0.0009387999999990001,225
mp-1111125,K2TlSbF6,-2.603626546783334,0.123964274250002,2.6523,False,NM,0.0018294,225
mp-1111367,K2TlVF6,-2.808479016783334,0.103332884625006,0.0,True,FM,1.9999231,225
mp-1112443,K2TmAgCl6,-2.006621741399999,0.026220457649999,3.6439,False,NM,3.7300000000000005e-05,225
mp-1112061,K2TmAuCl6,-2.00241253745,0.1294355262,2.1163,False,NM,0.0005378,225
mp-1112215,K2TmCuCl6,-1.9673442948999962,0.052313796650002006,2.4668,False,NM,0.0003117,225
mp-1112271,K2VAgF6,-2.688357245616667,0.07674597387500101,0.0,True,FM,1.999998,225
mp-1112253,K2VAuF6,-2.49830392445,0.24028779787500001,0.0,True,FM,1.9993398,225
mp-1206608,K2VCl6,-1.724577456944444,0.0,0.0,True,FM,1.0000001,225
mp-1112011,K2VHgF6,-2.6270630087000013,0.17559222237500102,0.0039000000000000003,True,FM,0.9998701,225
mp-568914,K2WCl6,-1.5350239002777761,0.0,0.0,True,FM,1.9999997,225
mp-1110911,K2YAgBr6,-1.815570857616666,0.045779363000000003,3.2941000000000003,False,NM,0.0004546,225
mp-1110872,K2YAgCl6,-2.012176435999998,0.036453195750002006,3.6689,False,NM,0.0002499,225
mp-1110847,K2YAgF6,-3.154359353616666,0.08541406625000601,2.6382,False,NM,0.0012902,225
mp-1110947,K2YAgI6,-1.361794086616666,0.084139925999999,2.508899999999999,False,NM,0.0009086,225
mp-1112058,K2YAuBr6,-1.695225902449999,0.12023071189999801,1.8861999999999992,False,NM,0.0005019,225
mp-1112059,K2YAuCl6,-1.991902996449999,0.139433161777777,2.2731,False,NM,0.0004695,225
mp-1112320,K2YAuF6,-2.965587578449999,0.24314510753703802,1.3878,False,NM,0.001545299999999,225
mp-1112056,K2YAuI6,-1.26823396845,0.138852716249997,1.1783000000000001,False,NM,0.0028013,225
mp-1112034,K2YCuBr6,-1.7716877844499992,0.06310574825000001,2.322699999999999,False,NM,0.000268299999999,225
mp-1112158,K2YCuCl6,-1.9743445044999932,0.061101019750003004,2.6002,False,NM,2.54e-05,225
mp-1112242,K2YCuF6,-3.125481663449999,0.158894874111112,0.5981999999999991,False,NM,1.15e-05,225
mp-1110942,K2YCuI6,-1.30573541945,0.115330207166666,1.8261,False,NM,0.0008900000000000001,225
mp-1112025,K2YHgBr6,-1.728962646699999,0.13828270150000102,0.0,True,FM,0.859384599999999,225
mp-1112193,K2YHgCl6,-1.894638868750003,0.16455313875000102,0.0,True,FM,0.8715746,225
mp-1112192,K2YHgF6,-3.0640209197,0.213304511749999,0.0,True,FM,0.9453851,225
mp-1112022,K2YHgI6,-1.2965844967,0.144510877,0.0,True,FM,0.682613799999999,225
mp-1111679,K2YInCl6,-2.166495664116666,0.078786127062502,3.1685,False,NM,0.0008740999999990001,225
mp-1111119,K2YInF6,-3.251672525116666,0.140638036833331,3.3664,False,NM,0.000103299999999,225
mp-1111194,K2YTlBr6,-1.8929744717833341,0.066655911499999,3.4148,False,NM,0.0007214999999990001,225
mp-1111122,K2YTlF6,-3.279106814783334,0.10737528699999901,4.3847000000000005,False,NM,7.299999999999999e-06,225
mp-1111185,K3AlBr6,-1.758407436174999,0.10756640124999901,3.316799999999999,False,NM,0.002317499999999,225
mp-1111502,K3AlCl6,-2.120414557174999,0.07758068750000001,4.6098,False,NM,7.740000000000001e-05,225
mp-1095079,K3AlF6,-3.402247983774997,0.018213154399996,6.2999,False,NM,0.0,225
mp-1110930,K3AlI6,-1.266776382175,0.11730286874999901,1.7713,False,NM,0.0015696999999990002,225
mp-1110929,K3AsBr6,-1.483631004924999,0.0714096825,2.9616000000000002,False,NM,0.0018789,225
mp-1111182,K3AsCl6,-1.7568540909250001,0.061707183249999006,3.4739,False,NM,0.0010726,225
mp-1111501,K3AsF6,-2.750747019925,0.023912502125000002,4.3402,False,NM,7.230000000000002e-05,225
mp-1111178,K3AsI6,-1.090858318924999,0.10259251150000101,2.178,False,NM,0.0028423,225
mp-1111500,K3AuBr6,-1.287507607174999,0.178432320749999,0.0,True,FM,1.9912200000000002,225
mp-1111499,K3AuCl6,-1.516515448174999,0.17366365049999902,0.1652,True,FM,1.9969687,225
mp-1111498,K3AuF6,-2.287342582175,0.12427027599999901,0.7349999999999991,True,FM,1.9989706999999992,225
mp-1184887,K3Ba,0.1447873995625,0.1447873995625,0.0,False,NM,0.0136454,225
mp-1184861,K3Be,0.6717694908125,0.6717694908125,0.0,False,NM,0.013166299999999001,225
mp-568516,K3Bi,-0.486863521562501,0.014359646249999001,0.12860000000000002,False,NM,0.0,225
mp-1110928,K3BiBr6,-1.6112242911749992,0.06869639250000001,3.4347,False,NM,0.001047999999999,225
mp-1110887,K3BiCl6,-1.6806278021249992,0.101574769249998,4.035,False,NM,0.0,225
mp-1110846,K3BiF6,-2.857933783175,0.073842639250002,4.5618,False,NM,7.670000000000002e-05,225
mp-1110960,K3BiI6,-1.204833895175,0.103714446499999,2.6837,False,NM,0.0001658,225
mp-1184877,K3Ca,0.15800565524999902,0.15800565524999902,0.0,False,NM,0.0093753,225
mp-983062,K3Cd,0.06827416718750001,0.102782362207033,0.0,False,NM,1e-06,225
mp-1110927,K3CeBr6,-2.053622275174999,0.09186763674999901,0.314799999999999,True,FM,0.9996737,225
mp-1111177,K3CeCl6,-2.290435123125,0.09141540199999901,0.359199999999999,True,FM,0.9947167,225
mp-1110959,K3CeI6,-1.5853532041749991,0.10390215149999901,0.27640000000000003,True,FM,1.030709,225
mp-1111145,K3CoF6,-2.683251744175,0.0,2.898399999999999,False,NM,0.0,225
mp-1184873,K3Cr,0.662161787749999,0.662161787749999,0.0,True,FM,5.2943393,225
mp-1111695,K3CrF6,-3.080177567174998,0.0,4.3858,True,FM,3.0,225
mp-1184884,K3Dy,0.595461000249999,0.595461000249999,0.0,True,FM,0.361056,225
mp-1111175,K3DyCl6,-2.306264969875001,0.064980743500006,4.6582,False,NM,0.000266099999999,225
mp-1211650,K3DyF6,-3.527994018341665,0.069076279,5.9154,False,NM,0.0005807,225
mp-1184895,K3Er,0.5872485027499981,0.5872485027499981,0.0,False,NM,0.003127999999999,225
mp-1111493,K3ErCl6,-2.301670565208327,0.06870759599999901,4.6701,False,NM,0.0002272,225
mp-1206189,K3ErF6,-3.546241612175,0.06435504850000001,5.9116,False,NM,0.0006659,225
mp-1184917,K3Eu,0.191448552749999,0.191448552749999,0.0,True,FM,7.4925685,225
mp-1111492,K3EuCl6,-2.218030902675,0.08960366400000001,0.0,True,FM,5.8904986,225
mp-1205962,K3EuF6,-3.2453438996750013,0.09024803375000001,0.0,True,FM,6.0000624,225
mp-1111491,K3FeF6,-2.90860409517499,5.4306625015598804e-05,4.1409,True,FM,5.0000004,225
mp-1184851,K3Ga,0.1859796051875,0.24351828016666702,0.0,False,NM,1.0378951,225
mp-1110886,K3GaBr6,-1.612923751924999,0.136330113,2.1845,False,NM,0.0010174,225
mp-1110859,K3GaCl6,-1.931998244925,0.10148068574999901,3.4505999999999992,False,NM,0.0006079,225
mp-1111080,K3GaF6,-3.043798041924998,0.0,5.7897,False,NM,0.0,225
mp-1110958,K3GaI6,-1.163965700925,0.181204982249997,0.8318000000000001,False,NM,0.0022389,225
mp-1111176,K3GdCl6,-2.289713767624998,0.070400583000001,3.1837,True,FM,7.0000317,225
mp-1184854,K3Ge,0.1469217458125,0.24799413989062502,0.0,True,FM,1.0160011,225
mp-1184880,K3Hf,1.12737560275,1.12737560275,0.0,True,FM,2.9272017,225
mp-983388,K3Hg,-0.018773012187498002,0.111821893125,0.0,False,NM,3.8e-05,225
mp-982663,K3Ho,0.589789802750001,0.589789802750001,0.0,False,NM,0.0777612,225
mp-1206199,K3HoCl6,-2.303148899374997,0.063994222249997,4.6876999999999995,False,NM,0.0002855,225
mp-1206658,K3HoF6,-3.535352223674999,0.06694491200000001,6.0044,False,NM,0.0004983,225
mp-1185054,K3In,0.08097062789583401,0.13834465838068202,0.0,False,NM,0.923741599999999,225
mp-1111490,K3InBr6,-1.648848100841666,0.079038325249999,2.385399999999999,False,NM,0.0005168999999990001,225
mp-1111173,K3InCl6,-1.9491021458416662,0.064671370499999,3.644599999999999,False,NM,0.0001251,225
mp-1111489,K3InF6,-2.952329527841666,0.037192378499995,5.1959,False,NM,0.000912699999999,225
mp-1111459,K3InI6,-1.214112946841667,0.10028593524999901,1.2778,False,NM,0.0,225
mp-20017,K3Ir(NO2)6,0.6858174235568181,1.874148620681813,0.0,False,NM,0.0040344,225
mp-1111425,K3IrF6,-2.506927969175,0.037957338999998,2.566799999999999,False,NM,0.000310699999999,225
mp-1111424,K3LaCl6,-2.310153578625005,0.104864496249991,4.5674,False,NM,0.0028566,225
mp-1184876,K3Li,0.113304854416666,0.113304854416666,0.0,False,NM,0.0004497,225
mp-1111421,K3LuCl6,-2.291047965291666,0.0,4.6928,False,NM,0.0,225
mp-1205912,K3LuF6,-3.572912842841666,0.05793956100000001,6.0081,False,NM,0.0006904999999990001,225
mp-1184862,K3Mg,0.146044597749999,0.146044597749999,0.0,False,NM,0.010499699999999001,225
mp-1184886,K3Mn,0.650281313267241,0.650281313267241,0.0,True,FM,4.3822417,225
mp-1111694,K3MnF6,-2.900522648968103,0.04315768999999001,0.0,True,FM,3.9999271,225
mp-1184863,K3Mo,1.16626064275,1.16626064275,0.0,True,FM,4.8670556,225
mp-1110884,K3MoBr6,-1.528057461174999,0.07416901449999701,1.5527000000000002,True,FM,2.996604999999999,225
mp-1110883,K3MoCl6,-1.736652194374997,0.0594243885,1.6364,True,FM,2.9981812,225
mp-553896,K3MoF6,-2.927756605174998,0.0,3.352999999999999,True,FM,3.0000001,225
mp-1110957,K3MoI6,-1.091496250175,0.103432880333333,1.4013,True,FM,3.0289357,225
mp-1184893,K3Na,0.027303699687500002,0.027303699687500002,0.0,False,NM,1e-07,225
mp-1111115,K3NbF6,-2.952687989174999,0.12276883995000101,0.0,True,FM,2.0012635,225
mp-1110926,K3NdBr6,-2.067253847924999,0.09444115700000201,3.7704,False,NM,0.0015565,225
mp-1110882,K3NdCl6,-2.281193550624999,0.095109230750008,4.5581,False,NM,0.00046899999999900006,225
mp-1110853,K3NdF6,-3.449900987924999,0.10744565600000001,5.614,False,NM,0.0009228999999990001,225
mp-1110956,K3NdI6,-1.598685918924999,0.097707174000003,3.1592000000000002,False,NM,0.0016485999999990002,225
mp-1111140,K3NiF6,-2.572764307175,0.042441256000001,0.0,True,FM,0.999933299999999,225
mp-1184896,K3Os,1.346526595249997,1.346526595249997,0.0,True,FM,1.659662599999999,225
mp-1111081,K3PdF6,-2.445116740175,0.05628324500000301,0.0,True,FM,1.0013418,225
mp-1110925,K3PrBr6,-2.062029076341667,0.10107454750000101,3.7651,False,NM,0.0014217,225
mp-1110881,K3PrCl6,-2.272290651291665,0.10233565799999901,4.566000000000001,False,NM,0.0004328,225
mp-1110852,K3PrF6,-3.432067384341666,0.11852714849999901,5.521100000000001,False,NM,0.0001216,225
mp-1110955,K3PrI6,-1.5961602483416661,0.103841975749991,3.174,False,NM,0.0003627,225
mp-1185090,K3Rb,0.032119735187500005,0.032119735187500005,0.0,False,NM,3.299999999999999e-06,225
mp-1066388,K3Re,1.5027831989999991,1.5027831989999991,0.0,True,FM,3.824527,225
mp-690789,K3ReH6,-0.108163672767857,0.18313132428571602,0.0,True,FM,2.0000278,225
mp-20364,K3Rh(NO2)6,0.747139625375,1.929751988863632,0.0,False,NM,0.0126033,225
mp-1111856,K3RhF6,-2.597276491174997,0.0,2.1828,False,NM,0.0,225
mp-1185000,K3Ru,1.04955916025,1.04955916025,0.0,True,FM,1.7268451,225
mp-1111078,K3RuF6,-2.5809826231749993,0.0,0.0,True,FM,1.0000001,225
mp-10159,K3Sb,-0.5330957603125,0.015185716250000002,0.6773,False,NM,0.0,225
mp-1110924,K3SbBr6,-1.5592419551749992,0.055149118750001,2.96,False,NM,0.0010463,225
mp-1110880,K3SbCl6,-1.639418502624997,0.070290303750001,3.3878,False,NM,0.0012259,225
mp-1110845,K3SbF6,-2.828718994174999,0.09148006750000101,3.8417,False,NM,0.0005813999999990001,225
mp-1110954,K3SbI6,-1.1582172141749991,0.1011572765,2.3534,False,NM,0.0015888999999990002,225
mp-973535,K3Sc,0.6149614614999991,0.6149614614999991,0.0,True,FM,2.0190796,225
mp-1110923,K3ScBr6,-2.021211225675001,0.017198258999998002,3.2185,False,NM,0.0,225
mp-1110879,K3ScCl6,-2.240673353124999,0.05331243674999601,4.0074,False,NM,0.0,225
mp-1111079,K3ScF6,-3.526572962674998,0.010893050166667001,6.1606,False,NM,0.0,225
mp-1111693,K3ScI6,-1.535936776674999,0.0554351375,2.3346,False,NM,0.0017473,225
mp-973528,K3Si,0.26478334115625,0.33343697787500004,0.0,True,FM,0.999879,225
mp-1110878,K3SmCl6,-2.292235718125005,0.082788381749994,4.6072,False,NM,0.0007241999999990001,225
mp-1205731,K3SmF6,-3.478113902674999,0.09463172850000101,5.7545,False,NM,0.0007702999999990001,225
mp-973614,K3Sn,-0.024722774187499002,0.11577614512499901,0.0,True,FM,1.0001852,225
mp-973622,K3Sr,0.11740812858333301,0.11740812858333301,0.0,False,NM,0.003768199999999,225
mp-1185022,K3Ta,1.410685070249998,1.410685070249998,0.0,True,FM,5.2530894,225
mp-1111159,K3TaBr6,-1.555294005908332,0.182400322725002,0.0,True,FM,1.9980369,225
mp-1111330,K3TaCl6,-1.886716292908332,0.17717265512500102,0.0,True,FM,1.9943654999999991,225
mp-1110844,K3TaF6,-2.8935074489083332,0.263863328106667,0.0,True,FM,1.8606921,225
mp-1111158,K3TaI6,-1.103151429908332,0.19880435471875002,0.0,True,FM,1.9967399,225
mp-1185073,K3Tb,0.595480880250001,0.595480880250001,0.0,True,FM,0.3931073,225
mp-1110877,K3TbCl6,-2.309309644624997,0.065657326,4.6505,False,NM,0.0002855,225
mp-1185030,K3Tc,1.195122734,1.195122734,0.0,True,FM,3.5941423,225
mp-1185141,K3Th,0.9583350927499971,0.9583350927499971,0.0,True,FM,3.7812483,225
mp-1111692,K3TiF6,-3.266874859508333,0.025831035999998003,0.0,True,FM,0.9856465,225
mp-974641,K3Tl,0.029719731229165002,0.082909520723214,0.0,False,NM,0.08733,225
mp-1111161,K3TlBr6,-1.496799403508333,0.095909967750001,1.3981,False,NM,0.0118511,225
mp-1111328,K3TlCl6,-1.762459037508333,0.06304823400000001,2.1466,False,NM,0.0007138,225
mp-1111691,K3TlF6,-2.657620796508333,0.047491441749999,3.720399999999999,False,NM,0.0001382,225
mp-1111318,K3TlI6,-1.099529568508333,0.152345377,0.534799999999999,False,NM,0.0013322,225
mp-1185079,K3Tm,0.583490483583332,0.583490483583332,0.0,True,FM,0.1711952,225
mp-1110876,K3TmCl6,-2.3081295586249952,0.062278617499998,4.6853,False,NM,0.0001719,225
mp-1205844,K3TmF6,-3.560281333175,0.0617709415,6.0112,False,NM,0.000359799999999,225
mp-973444,K3V,0.882870680249999,0.882870680249999,0.0,True,FM,4.8765899,225
mp-1111308,K3VF6,-3.047231967175,0.057188174875006006,0.0,True,FM,2.0014711,225
mp-973446,K3W,1.50155492775,1.50155492775,0.0,True,FM,4.9485377,225
mp-555403,K3WF6,-2.8451750771749973,0.0,2.8446,True,FM,3.0,225
mp-1185095,K3Y,0.5785553910833341,0.5785553910833341,0.0,False,NM,0.4259053,225
mp-1110922,K3YBr6,-2.078634647175,0.054429810000001,3.7851,False,NM,0.001423,225
mp-1110875,K3YCl6,-2.304717548625001,0.06527624599999801,4.3648,False,NM,0.00016329999999900003,225
mp-1110843,K3YF6,-3.511177537175,0.070653912999999,5.8597,False,NM,0.0005285,225
mp-1110953,K3YI6,-1.598888931174999,0.08749095999999801,3.1873,False,NM,0.000357499999999,225
mp-1185057,K3Yb,0.634815610937501,0.634815610937501,0.0,False,NM,0.0722549,225
mp-1205753,K3YbF6,-3.540339901625001,0.079848619249999,6.0621,False,NM,0.0,225
mp-1185029,K3Zn,0.145566875908652,0.17125450107692303,0.0,False,NM,0.005115,225
mp-973265,K3Zr,0.9782274927499991,0.9782274927499991,0.0,True,FM,3.823565,225
mp-1203532,K4Ag18Te11,-0.42831694204040205,0.0,0.0,False,NM,0.0317801,225
mp-866664,K8Zr6BBr20,-1.8742776644904762,0.0,0.055299999999999,False,NM,1.0011267,225
mp-1211836,K8Zr6BeBr20,-1.827540611514285,0.0,0.9222,False,NM,0.0014272,225
mp-1212020,K8Zr6MnBr20,-1.8032897581694591,0.0,0.14250000000000002,True,FM,1.0005591,225
mp-1185033,KAc3,0.34244368487500004,0.34244368487500004,0.0,False,NM,0.0131433,225
mp-863710,KAcTe2,-1.579242447812504,0.07703146999999401,0.8620999999999991,False,NM,0.0,225
mp-1009048,KAgO,-0.5784837046388871,0.448767567499997,0.0,False,NM,1.65e-05,216
mp-1059907,KB,2.054070847187498,2.100926020416666,0.0,False,NM,6.890000000000003e-05,225
mp-1223473,KBH4,-0.45154238020833304,0.0027547099999990004,6.2165,False,NM,0.0016108,216
mp-631536,KBIr2,1.584908531906251,1.79444053425,0.0,False,NM,0.002374599999999,225
mp-1205512,KBa2IO6,-2.135474944225,0.0,2.779,False,NM,0.0003513,225
mp-631513,KBa2Re,1.2769295550625,1.2769295550625,0.0,True,FM,2.0877347,216
mp-1185072,KBa3,0.1172701481875,0.1172701481875,0.0,False,NM,0.5612041,225
mp-1520614,KBaBiWO6,-2.328046917724999,0.020003414374994002,2.4187,False,NM,0.0,216
mp-1519349,KBaCeBiO6,-2.6158763077250002,0.006785579999977,1.5341,False,NM,0.0,216
mp-1517646,KBaCeMnO6,-2.6164029625181042,0.12000401999999301,0.0,True,FiM,2.0000004,216
mp-1518146,KBaCeWO6,-2.8923902787249993,0.046844616384616004,0.0,True,FM,1.0000005,216
mp-1520553,KBaEuWO6,-2.728668683225001,0.07024298437500101,0.0,True,FM,6.0,216
mp-1523079,KBaGdWO6,-2.937881864725,0.0,2.8167,True,FM,7.0000002,216
mp-1522815,KBaLaMnO6,-2.374000890018105,0.175684049175152,0.0,True,FiM,0.9999996,216
mp-1521248,KBaLaSeO6,-2.427617799459375,0.11236998204166701,1.9313999999999991,False,NM,0.0,216
mp-1519457,KBaLaWO6,-2.908048487225001,0.00208822175,2.9377999999999993,False,NM,0.0,216
mp-1223441,KBaLiZnF6,-3.280478174058333,0.007384822999999,5.5617,False,NM,0.0001141,216
mp-1521867,KBaNdWO6,-2.893126229475,0.0,2.8191,False,NM,0.0,216
mp-961648,KBaP,-0.23958089063095103,0.422703743672223,1.1622,False,NM,0.00044879999999900005,216
mp-1516766,KBaPrBiO6,-2.314111757891666,0.061761819781249006,0.0,False,NM,1.0,216
mp-1523149,KBaPrWO6,-2.8741321578916663,0.0,2.8123,False,NM,0.0,216
mp-1100403,KBaSb,-0.49571660574999904,0.30541850677777704,0.9849999999999991,False,NM,1.0500000000000001e-05,216
mp-1522193,KBaSmMnO6,-2.376886704018103,0.1468555363125,0.0,True,FiM,0.999999299999999,216
mp-962073,KBaSn,0.035810862583333006,0.504240105916666,0.0,False,NM,0.0482994,216
mp-1517086,KBaSrMnO6,-2.010359472518103,0.20923839099999503,0.0,True,FiM,8e-07,216
mp-1518659,KBaTbBiO6,-2.397663674391665,0.05010025603124801,0.0,False,NM,1.0,216
mp-631464,KBePt,0.747810549249999,0.9324492869166671,0.0,False,NM,0.003300699999999,216
mp-1211670,KBi3F10,-2.841616061946428,0.0,4.4569,False,NM,0.0,225
mp-23251,KBr,-2.018192221125,0.0,4.3224,False,NM,0.0,225
mp-722819,KC,2.308265752515625,2.334270197437499,0.5945,True,FM,3.0010171,225
mp-1185016,KCa3,0.17495785925000001,0.17495785925000001,0.0,False,NM,0.00022689999999900003,225
mp-1516386,KCaBiWO6,-2.207533469725001,0.176319221999996,2.135299999999999,False,NM,0.0,216
mp-1518152,KCaCeBiO6,-2.494317945724999,0.13133132975,1.7974,False,NM,0.0,216
mp-1517359,KCaCeFeO6,-2.402105791725,0.16644842016668002,0.0,True,FM,3.0000004,216
mp-1517965,KCaCeMnO6,-2.543611704518103,0.20084550983332802,0.0,True,FiM,2.0000003,216
mp-1518330,KCaCeNbO6,-3.123901633725,0.141518944000001,2.109299999999999,False,NM,0.0,216
mp-1517767,KCaCeSbO6,-2.7668668397249983,0.09705348449999901,1.987299999999999,False,NM,0.0,216
mp-1521578,KCaDySeO6,-2.40307084312604,0.194372449041663,2.0625,False,NM,0.0,216
mp-1520891,KCaDyWO6,-2.8783435038916663,0.10262899962499301,2.8505000000000003,False,NM,0.0,216
mp-1519702,KCaEuFeO6,-2.012089856225,0.253721016624997,0.0,True,FiM,8.004643,216
mp-1519932,KCaEuSeO6,-2.196841280459375,0.26063370604166103,0.0,True,FM,5.9951256,216
mp-1517457,KCaEuWO6,-2.617136997225001,0.21638537475000202,0.0,True,FM,6.0000002,216