material_id,formula,formation_energy,ehull,band_gap,is_magnetic,magnetic_ordering,total_magnetization,spacegroup
mp-866168,TiInPd2,-0.5699135724999991,0.0,0.0,False,NM,5.1200000000000004e-05,225
mp-866170,TiInRh2,-0.6416888299999971,0.0,0.0,False,NM,0.0022226,225
mp-865531,TiMn2Al,-0.33561966979885105,0.0,0.0,True,FiM,4.4163424,225
mp-865780,TiMn2Ga,-0.23709498417385003,0.033829182187499,0.0,True,FiM,3.0322184,225
mp-866376,TiMn2Ge,-0.340109056048851,0.034273724267244,0.0,True,FiM,1.989115099999999,225
mp-865652,TiMn2Si,-0.5069638372988511,0.0,0.0,True,FiM,2.0001942,225
mp-865678,TiMn2V,-0.276929562298851,0.0,0.0,True,FiM,0.8560186,225
mp-865656,TiMn2W,-0.24186066979885001,0.0,0.0,False,NM,9e-07,225
mp-865537,TiMnCo2,-0.28086934531609303,0.0,0.0,True,FiM,5.0148001,225
mp-1187499,TiMnIr2,-0.5778051828160901,0.00306081551724,0.0,True,FM,4.9557426,225
mp-865523,TiMnRh2,-0.570469517816091,0.0,0.0,True,FM,4.9304371,225
mp-1187245,TiMo2W,-0.111944689166662,0.0010803131578990001,0.0,False,NM,0.0001193,225
mp-492,TiN,-1.9426672827083311,0.0,0.0,False,NM,4e-07,225
mp-998908,TiN,-1.64079266270833,0.30187462000000104,0.0,False,NM,0.0007662999999990001,216
mp-1521905,TiNb(SnO3)2,-2.427762888333333,0.18636178174998702,0.0,False,NM,0.0862168,225
mp-1216666,TiNbCr4,0.096457240555556,0.096457240555555,0.0,False,NM,1.1200000000000001e-05,216
mp-865653,TiNbRe2,-0.43279193791666104,0.0,0.0,False,NM,4.5e-05,225
mp-980649,TiNbRu2,-0.5052464116666681,0.031425779166667,0.0,False,NM,0.001164299999999,225
mp-865655,TiNbTc2,-0.487201369166665,0.0,0.0,False,NM,3.46e-05,225
mp-10261,TiNi2Sb,-0.40260896833333204,0.098220998958332,0.0,False,NM,0.0109319,225
mp-3740,TiNi2Sn,-0.432280602083332,0.035854841160712005,0.0,False,NM,0.0055841,225
mp-1216682,TiNi4GeO8,-1.940748564880951,0.0,2.4005,True,FM,7.9733827999999995,216
mp-961694,TiNiGe,-0.012492179444444002,0.663704380833332,0.0,False,NM,0.007672099999999,216
mp-20952,TiNiSb,-0.557564111111111,0.0,0.0,False,NM,6.0400000000000004e-05,216
mp-581712,TiNiSb,-0.10099648111111001,0.45656763000000106,0.0,False,NM,0.0002004,216
mp-22782,TiNiSn,0.170788010555555,0.70021036,0.0,False,NM,0.0010504,216
mp-623646,TiNiSn,0.134768280555556,0.664190630000001,0.0,False,NM,4e-07,216
mp-924130,TiNiSn,-0.529422349444445,0.0,0.45270000000000005,False,NM,0.0,216
mp-2664,TiO,-2.635512259166669,0.272444019999998,0.0,False,NM,1e-05,225
mp-1008677,TiO2,-3.199730607777778,0.308324844166666,1.056499999999999,False,NM,9.66e-05,225
mp-961705,TiPtPb,-0.14813270055556402,0.52099810166667,0.0,False,NM,0.0001002,216
mp-1187511,TiRe2Mo,-0.352883280416662,0.0,0.0,False,NM,2.1800000000000005e-05,225
mp-865664,TiRe2W,-0.40707848291666604,0.0,0.0,False,NM,1.3100000000000002e-05,225
mp-865665,TiReTc2,-0.322698332291665,0.039950444809662006,0.0,False,NM,6.54e-05,225
mp-1206908,TiSbRh,-0.33756545111111,0.31626119282051,0.0,False,NM,0.000976,216
mp-31458,TiSbRu,-0.44228286472222006,0.15207364041666602,0.0,False,NM,0.0180123,216
mp-865680,TiSiOs2,-0.722548200416667,0.0,0.0,False,NM,1e-07,225
mp-961659,TiSiPd,-0.6683081322222241,0.19690920749999702,0.4087,False,NM,0.000386899999999,216
mp-961706,TiSiPt,-1.010377284722219,0.060328260833333,0.9013,False,NM,0.0,216
mp-865681,TiSiRu2,-0.9612671704166681,0.0,0.0,False,NM,1e-07,225
mp-865669,TiSiTc2,-0.582430327916668,0.0,0.0,False,NM,0.00047759999999900005,225
mp-1216635,TiSnIr,-0.5687147961111131,0.008294697424240001,0.0,True,FM,0.9995242,216
mp-961682,TiSnPd,-0.6324236455555551,0.0,0.20389999999999903,False,NM,0.0,216
mp-865679,TiSnPd2,-0.603945289166667,0.023623566874999002,0.0,False,NM,3.1e-06,225
mp-30847,TiSnPt,-0.938612322222217,0.0,0.7908000000000001,False,NM,0.0,216
mp-1206684,TiSnRh,-0.11759556277777701,0.43786011177536205,0.0,False,NM,0.0005071,216
mp-1216641,TiSnRh,-0.551326402777775,0.004129271775363001,0.0,True,FM,1.016326,216
mp-865707,TiSnRh2,-0.656580962083332,0.0,0.0,False,NM,0.0084978,225
mp-865888,TiSnRu2,-0.6434530166666651,0.0,0.0,False,NM,0.0,225
mp-1187489,TiTc2Ge,-0.40573391416666704,0.0,0.0,False,NM,0.0017530999999990002,225
mp-866213,TiTc2Mo,-0.395030951666662,0.0,0.0,False,NM,1e-07,225
mp-865809,TiTc2Sb,-0.40152703916666604,0.0,0.0,False,NM,1e-06,225
mp-1187492,TiTc2Sn,-0.267453366666664,0.0,0.0,False,NM,6.810000000000004e-05,225
mp-865810,TiTc2W,-0.44598740166666606,0.0,0.0,False,NM,2.299999999999998e-06,225
mp-961646,TiTeOs,-0.299078620555557,0.389576181666665,0.43770000000000003,False,NM,0.001679,216
mp-1100412,TiTeRu,-0.533593638055554,0.193916748750002,0.786099999999999,False,NM,0.0023212,216
mp-1208163,TiTl2BF6,-2.130824644916668,0.676116151416662,0.0,True,FM,0.9874769,225
mp-631374,TiTl2W,0.792433242500003,0.8037247858333311,0.0,False,NM,0.003374599999999,225
mp-15635,TiTl3F6,-2.653224633333335,0.095722137666659,0.0,True,FM,0.798619899999999,225
mp-865916,TiVRe2,-0.46495339041666706,0.0,0.0,False,NM,1.7000000000000003e-05,225
mp-1100772,TiVRu2,-0.5375355541666661,0.035782759999996,0.0,True,FiM,0.4381981,225
mp-865914,TiVTc2,-0.49707345916666706,0.0,0.0,False,NM,0.0010389,225
mp-631373,TiVW,1.122897118888886,1.163865205555552,0.0,True,FiM,0.6862317,216
mp-1187491,TiZn2Pd,-0.37718005583333203,0.016788422499998002,0.0,False,NM,5.9e-06,225
mp-865730,TiZnAu2,-0.35065394333333405,0.0,0.0,False,NM,9.4e-06,225
mp-865898,TiZnCo2,-0.34412606583333305,0.0,0.0,False,NM,3e-06,225
mp-865930,TiZnCu2,-0.166646768333333,0.0,0.0,False,NM,4.6700000000000003e-05,225
mp-865048,TiZnIr2,-0.7074610533333321,0.0,0.0,False,NM,4.4e-06,225
mp-865093,TiZnNi2,-0.401892963333332,0.0,0.0,False,NM,8.7e-06,225
mp-865079,TiZnPd2,-0.581745330833332,0.0,0.0,False,NM,6e-06,225
mp-861619,TiZnPt2,-0.742613298333331,0.018284721666664002,0.0,False,NM,1.0300000000000001e-05,225
mp-861961,TiZnRh2,-0.7726216583333261,0.0,0.0,False,NM,8e-07,225
mp-151,Tl,0.029167420000000003,0.029167420000000003,0.0,False,NM,1.699999999999999e-06,225
mp-1208169,Tl2CrF6,-2.436103412962965,0.064846507083331,0.0,True,FM,2.0000138,225
mp-989555,Tl2InGaF6,-2.381190492083334,0.0,2.3602,False,NM,0.0003313,225
mp-29562,Tl2MoCl6,-1.374365319629633,0.0,0.0,True,FM,2.0000002,225
mp-27834,Tl2PtCl6,-1.186853145185187,0.0,1.7373999999999992,False,NM,0.0,225
mp-5033,Tl2SiF6,-2.836305280555557,0.0,4.976,False,NM,2e-07,225
mp-631548,Tl2SiNi,0.638950250833332,0.8742779852083331,0.0,False,NM,0.011812099999999002,225
mp-27832,Tl2SnCl6,-1.431323001296296,0.0,2.4814,False,NM,0.0,225
mp-27833,Tl2TeCl6,-1.2225430959259231,0.0,2.5741,False,NM,0.0,225
mp-1208154,Tl2VF6,-2.614846212222223,0.0,0.0,True,FM,0.999999899999999,225
mp-29556,Tl2WCl6,-1.337106920740742,0.0,0.0,True,FM,2.0000001,225
mp-1187632,Tl3B,0.9822966577083321,0.9822966577083321,0.0,False,NM,0.0017338,225
mp-1187513,Tl3Cd,0.083450475000006,0.083450475000006,0.0,False,NM,0.0476568,225
mp-1205742,Tl3CrF6,-2.447200462000004,0.0,3.2437,True,FM,2.9999998,225
mp-1205667,Tl3FeF6,-2.278096453,0.0,2.6238,True,FM,4.9999994999999995,225
mp-1187539,Tl3Ga,0.09724636562500401,0.09724636562500401,0.0,False,NM,0.0013966999999990002,225
mp-1205554,Tl3GaF6,-2.311866914,0.0,3.327699999999999,False,NM,0.0,225
mp-971826,Tl3H,0.408598028749999,0.408598028749999,0.0,False,NM,0.0008502,225
mp-971750,Tl3Ir,0.522891524999998,0.522891524999998,0.0,False,NM,0.001116499999999,225
mp-20116,Tl3Ir(NO2)6,1.010915487272726,1.902906866249996,0.0,True,FiM,5.9995769,225
mp-972082,Tl3Si,0.361464877500004,0.361464877500004,0.0,False,NM,0.0016385,225
mp-1205535,Tl3VF6,-2.370383564999997,0.047964231249999004,0.0,True,FM,1.9995673999999992,225
mp-981380,Tl3Zn,0.13085037999999802,0.13085037999999802,0.0,False,NM,0.0027967,225
mp-569932,Tl7(Ag18Te11)2,-0.25945775707692204,0.00042836975000100006,0.0,False,NM,0.0993326,225
mp-1187527,TlAgPd2,-0.171764640892853,0.007857433869041001,0.0,False,NM,0.00016309999999900002,225
mp-1007770,TlAs,0.116687025833329,0.116687025833329,0.0,False,NM,0.001435399999999,216
mp-631519,TlBCl2,0.420787941874998,1.56157055722222,0.7963,False,NM,5.2e-06,216
mp-631520,TlBTe2,0.8922200985416651,1.1698621656250001,0.0,False,NM,0.0018223,216
mp-1208058,TlBi3F10,-2.529673092499998,0.0,4.4399999999999995,False,NM,0.0,225
mp-568560,TlBr,-1.146353669166671,0.004668182499997,2.2962,False,NM,0.0,225
mp-567465,TlC,2.10802690958333,2.10802690958333,0.0,False,NM,0.000112199999999,225
mp-866188,TlCdRh2,-0.07693455249999501,0.0,0.0,False,NM,9e-06,225
mp-569639,TlCl,-1.31958458666667,0.0062336574999970005,2.5369,False,NM,0.0,225
mp-30530,TlClO4,-0.6997980705555561,0.0,4.570699999999999,False,NM,0.0,216
mp-631563,TlCoAs2,0.617852347291666,0.8354406266666671,0.0,False,NM,2.499999999999999e-06,225
mp-631546,TlCoBi,0.8453412447777751,0.859769715333328,0.0,True,FM,1.9878366,216
mp-631559,TlCoMo2,0.6595458695833321,0.6595458695833321,0.0,True,FiM,0.2043644,216
mp-631428,TlCoW,1.413196156666671,1.413196156666671,0.0,True,FiM,1.0692232,216
mp-631371,TlCuIr,0.526797712222228,0.526797712222226,0.0,False,NM,0.0001946,216
mp-2175,TlF,-1.814429789999998,0.05713117125000201,2.211699999999999,False,NM,0.0,225
mp-571102,TlI,-0.8661446141666691,0.0,2.208599999999999,False,NM,0.0,225
mp-1002222,TlN,0.971186535833332,0.971186535833332,0.0,False,NM,0.000126499999999,225
mp-1007778,TlN,0.733738815833334,0.733738815833334,0.0,False,NM,8.640000000000001e-05,216
mp-1007776,TlP,0.20813198867856902,0.234726988166666,0.0,False,NM,0.0005737,216
mp-865232,TlPd2Au,-0.18658769749999402,0.003176981124994,0.0,False,NM,0.0,225
mp-5478,TlPd3O4,-0.9432176497916661,0.0,1.056499999999999,False,NM,0.0,225
mp-1208033,TlPt3O4,-0.881812971666668,0.0,1.4306,False,NM,0.0,225
mp-1002219,TlSb,0.056415752619052004,0.071025235,0.0,False,NM,0.001679,216
mp-631409,TlTcIr2,0.624160577812503,0.7793902272916711,0.0,True,FM,3.931463,225
mp-631475,TlZn2Tc,0.5903279925,0.6800756266666631,0.0,False,NM,3.9e-06,216
mp-10660,Tm,0.057614779999994,0.057614779999994,0.0,False,NM,9e-07,225
mp-1202074,Tm11Cd45,-0.167567730982142,0.004116547678573001,0.0,False,NM,0.5238691,216
mp-21608,Tm2(Ni7B2)3,-0.357758620172412,0.0,0.0,False,NM,0.0631748,225
mp-1187588,Tm2AgAu,-0.6765553587500001,0.004178418749994001,0.0,False,NM,2e-07,225
mp-979176,Tm2AgHg,-0.46825434062500104,0.0,0.0,False,NM,8e-07,225
mp-865300,Tm2AgIr,-0.663874632916668,0.018141618281253002,0.0,False,NM,3e-07,225
mp-865279,Tm2AgOs,-0.39871063374999904,0.0,0.0,False,NM,2e-07,225
mp-865281,Tm2AgPt,-0.8966955737499941,0.012716216249991,0.0,False,NM,2.3500000000000002e-05,225
mp-865282,Tm2AgRu,-0.40883406291667,0.0,0.0,False,NM,3e-07,225
mp-865283,Tm2AlOs,-0.412836122500003,0.105827137511944,0.0,False,NM,7.0999999999999955e-06,225
mp-1187586,Tm2AlRu,-0.40816841750000304,0.09030090649038401,0.0,False,NM,1.1e-06,225
mp-979012,Tm2AlZn,-0.42471074625000305,0.013051681249997001,0.0,False,NM,0.005166599999999,225
mp-979042,Tm2BeOs,-0.14370700625000402,0.15739631269853002,0.0,False,NM,6.92e-05,225
mp-979258,Tm2CdHg,-0.37233478812500403,0.011264665,0.0,False,NM,1.2e-06,225
mp-865302,Tm2CdIn,-0.36231210666667,0.0,0.0,False,NM,0.0014187,225
mp-865284,Tm2CdOs,-0.252832527500003,0.063674572249999,0.0,False,NM,5.9e-06,225
mp-979043,Tm2CoCu,-0.238332755000003,0.017468470250001002,0.0,True,FiM,0.384904099999999,225
mp-865309,Tm2CoIr,-0.6025380450000031,0.048179686406251004,0.0,True,FiM,0.223378599999999,225
mp-865303,Tm2CoOs,-0.211231460000002,0.08549449543750201,0.0,False,NM,0.0016104,225
mp-865304,Tm2CoRu,-0.33449961250000404,0.005069884374998001,0.0,False,NM,0.0033872,225
mp-979044,Tm2CuAu,-0.582019662500003,0.013913973750001002,0.0,False,NM,6.450000000000001e-05,225
mp-865307,Tm2CuIr,-0.6633023075000001,0.003487809930557,0.0,False,NM,2.6e-06,225
mp-865306,Tm2CuOs,-0.38454446000000003,0.0,0.0,False,NM,1.3e-06,225
mp-979045,Tm2CuPd,-0.6310741000000021,0.010871334999997,0.0,False,NM,1.2900000000000002e-05,225
mp-865317,Tm2CuPt,-0.8823360549999961,0.015227007500001001,0.0,False,NM,2e-07,225
mp-1187608,Tm2CuRh,-0.6182651450000011,0.015579792500000002,0.0,False,NM,6.799999999999997e-06,225
mp-865319,Tm2CuRu,-0.403783090000001,0.0,0.0,False,NM,1e-06,225
mp-977593,Tm2CuTc,-0.17863062303728203,0.08339817104166501,0.0,False,NM,8e-05,225
mp-1187631,Tm2GaCu,-0.497977452500006,0.020324151249997,0.0,False,NM,6.47e-05,225
mp-865339,Tm2GaOs,-0.505196085000001,0.07488479257812401,0.0,False,NM,1.5300000000000003e-05,225
mp-1187575,Tm2GaRu,-0.502075566875003,0.0019210956250000002,0.0,False,NM,6.5e-06,225
mp-865340,Tm2HgOs,-0.41111740437499805,0.08362528132812401,0.0,False,NM,7e-06,225
mp-1187823,Tm2InHg,-0.5481423243750071,0.0048217625,0.0,False,NM,8.33e-05,225
mp-865341,Tm2InOs,-0.40879887750000404,0.085675143466794,0.0,False,NM,6.900000000000002e-05,225
mp-865343,Tm2IrOs,-0.5629374800000031,0.132474065468751,0.0,False,NM,0.0102873,225
mp-865354,Tm2IrPd,-0.9862579600000021,0.0,0.0,False,NM,4e-07,225
mp-1187565,Tm2IrPt,-1.095071167500003,0.041715000000002,0.0,False,NM,0.0162886,225
mp-866085,Tm2IrRh,-0.9737402075000051,0.0,0.0,False,NM,0.0003322,225
mp-865381,Tm2IrRu,-0.720227205000003,0.0,0.0,False,NM,2.2e-06,225
mp-865356,Tm2MgAl,-0.24390844875000503,0.0,0.0,False,NM,0.00017779999999900003,225
mp-1187598,Tm2MgCd,-0.15677171625000502,0.008981247499997,0.0,False,NM,1.62e-05,225
mp-865359,Tm2MgIn,-0.27139650541666904,0.0,0.0,False,NM,0.0006759,225
mp-865360,Tm2MgIr,-0.49549032875000304,0.10516028387500001,0.0,False,NM,0.020896599999999002,225
mp-865361,Tm2MgOs,-0.255954978750001,0.043622588359369004,0.0,False,NM,0.0,225
mp-865363,Tm2MgRu,-0.230998693750003,0.069690429375,0.0,False,NM,1.8100000000000003e-05,225
mp-865449,Tm2MgTc,-0.037073105000003,0.07509658062499801,0.0,False,NM,0.0002936,225
mp-971705,Tm2MgTl,-0.179662072083338,0.025296336249998,0.0,False,NM,0.0134305,225
mp-865451,Tm2MnOs,-0.07687473698276201,0.16214890539224303,0.0,True,FiM,3.5955298,225
mp-865365,Tm2NiIr,-0.7335804950000041,0.010977292656249001,0.0,False,NM,0.0002351,225
mp-865368,Tm2NiOs,-0.38349492500000104,0.036168254750002,0.0,False,NM,0.0015367999999990002,225
mp-1187625,Tm2NiPt,-0.864475592500002,0.043949565000001,0.0,False,NM,0.025224,225
mp-865367,Tm2NiRu,-0.47795408250000104,0.0,0.0,False,NM,0.002525899999999,225
mp-865369,Tm2OsAu,-0.6361541900000061,0.093918236,0.0,False,NM,4e-07,225
mp-865374,Tm2OsPd,-0.695647122499998,0.008077586328120001,0.0,False,NM,9e-07,225
mp-865375,Tm2OsRh,-0.5784153750000051,0.081057987249998,0.0,False,NM,4e-07,225
mp-865383,Tm2OsRu,-0.281596282500005,0.102667028437497,0.0,False,NM,2.6700000000000002e-05,225
mp-1187605,Tm2PdAu,-0.9635711550000031,0.030991931249999,0.0,False,NM,2.92e-05,225
mp-865380,Tm2PdPt,-1.203962087500002,0.024234528124999002,0.0,False,NM,9.3e-06,225
mp-1187639,Tm2PdRh,-0.950641900000002,0.011184892499999,0.0,False,NM,8e-07,225
mp-865384,Tm2PdRu,-0.7309803975000011,0.0,0.0,False,NM,2e-07,225
mp-1187583,Tm2PtRh,-1.107996895000003,0.040238445000000005,0.0,False,NM,0.0059418,225
mp-1187585,Tm2RuAu,-0.6460549550000041,0.0,0.0,False,NM,8e-06,225
mp-866119,Tm2RuPt,-0.876507530000002,0.0,0.0,False,NM,2.8e-06,225
mp-866122,Tm2RuRh,-0.722199970000003,0.0,0.0,False,NM,2e-07,225
mp-1187589,Tm2TcAg,-0.202943497576754,0.08607084104166701,0.0,False,NM,0.0001092,225
mp-866120,Tm2TlAg,-0.405420333750001,0.0,0.0,False,NM,1.2e-06,225
mp-977589,Tm2TlCd,-0.291291478333342,0.0,0.0,False,NM,0.0028352,225
mp-981381,Tm2TlHg,-0.47860792437500504,0.0,0.0,False,NM,2.7700000000000002e-05,225
mp-1187601,Tm2TlZn,-0.38260225625000205,0.043889372500004006,0.0,False,NM,0.0009899,225
mp-971979,Tm2ZnAg,-0.374587262500003,0.005480029999997,0.0,False,NM,8.7e-06,225
mp-1187587,Tm2ZnAu,-0.688506626250003,0.016894341250001003,0.0,False,NM,0.0,225
mp-971982,Tm2ZnCu,-0.308457102500002,0.013774455000000001,0.0,False,NM,1.5100000000000001e-05,225
mp-972244,Tm2ZnGa,-0.544842446250005,0.0258924671875,0.0,False,NM,6.799999999999997e-06,225
mp-972274,Tm2ZnHg,-0.47182341312500803,0.013091164999998002,0.0,False,NM,5e-07,225
mp-1187650,Tm2ZnIn,-0.46845405375000104,0.035181132083309,0.0,False,NM,8.32e-05,225
mp-865237,Tm2ZnIr,-0.688207760000004,0.016240180000002002,0.0,False,NM,9e-07,225
mp-865236,Tm2ZnOs,-0.419894343750002,0.00291381421875,0.0,False,NM,3.65e-05,225
mp-1187599,Tm2ZnPd,-0.6430384100000031,0.007175002499998,0.0,False,NM,5.799999999999999e-06,225
mp-865338,Tm2ZnPt,-0.833659437500001,0.012348472916667,0.0,False,NM,9.199999999999997e-06,225
mp-972022,Tm2ZnRh,-0.647074820000002,0.018838754999999003,0.0,False,NM,3.5e-06,225
mp-865351,Tm2ZnRu,-0.41541728000000405,0.0,0.0,False,NM,6.099999999999997e-06,225
mp-865401,Tm2ZnTc,-0.237875654270837,0.070032871041664,0.0,False,NM,0.003193199999999,225
mp-1208086,Tm3(P3Pd10)2,-0.7341946557881731,0.0,0.0,False,NM,6e-07,225
mp-1208001,Tm3(SbPd2)4,-0.8205771767096811,0.0009473480000000001,0.0,False,NM,0.0042393,225
mp-1208056,Tm3(Si3Pd10)2,-0.834067574482764,0.0,0.0,False,NM,1e-07,225
mp-1208427,Tm3Cu20Sb11,-0.192943190735293,0.035113603676471004,0.0,False,NM,0.0366777,216
mp-1195989,Tm3Si11Pt23,-0.84979175581081,0.0,0.0,False,NM,0.5088743,225
mp-2880538,Tm3V,0.28674285249999804,0.28674285249999804,0.0,True,FM,3.685141,225
mp-1208012,Tm4CdIr,-0.5329173945833421,0.0,0.0,True,FM,1.7090887000000001,216
mp-1207915,Tm4CdNi,-0.30265230333333604,0.0,0.0,False,NM,1.2900000000000002e-05,216
mp-1208067,Tm4CdPd,-0.45542952500000106,0.0,0.0,False,NM,1.3e-06,216
mp-1208037,Tm4CdPt,-0.612763339166676,0.0,0.0009000000000000001,False,NM,7e-07,216
mp-582278,Tm4InRh,-0.569057211944449,0.0,0.0,False,NM,7e-07,216
mp-1208060,Tm4MgCo,-0.14895231125000602,0.0,0.0,False,NM,0.0007913999999990001,216
mp-1208029,Tm4MgNi,-0.20484837166667003,0.0,0.0,False,NM,0.0360012,216
mp-1208049,Tm4MgRh,-0.403837350416671,0.0,0.0,True,FM,2.2844203,216
mp-980195,Tm6Al7Cu16,-0.41825327862069106,0.0,0.0,False,NM,6.75e-05,225
mp-1193308,Tm6Fe23,-0.08473709344827801,0.008415423103447001,0.0,True,FiM,48.503499,225
mp-1192498,Tm6Mn23,-0.020262492497029,0.0,0.0,True,FiM,13.0467109,225
mp-1194452,Tm6Zn23,-0.341036902931036,0.011939172131661001,0.0,False,NM,2e-07,225
mp-980426,TmAlAg2,-0.353009867499999,0.0,0.0,False,NM,3e-07,225
mp-972272,TmAlAu2,-0.8127059820981941,0.024627360000003002,0.0,False,NM,0.0024729,225
mp-1101,TmAs,-1.775536726249999,0.0,0.0,False,NM,0.0,225
mp-1104905,TmB12,-0.266125806153847,0.0,0.0,False,NM,0.0,225
mp-23234,TmBi,-0.9863939075000011,0.0,0.0,False,NM,0.0,225
mp-1206744,TmBiPd,-1.015771948333333,0.0,0.0,False,NM,5e-07,216
mp-972400,TmBiPd2,-0.799436512499994,0.07628103124999701,0.0,False,NM,0.00020099999999900002,225
mp-1207057,TmBiPt,-1.16265573166666,0.0,0.0,False,NM,1e-07,216
mp-1207929,TmBiRh,-0.19311227666666902,0.47823099738889,0.0,False,NM,0.001058299999999,216
mp-865873,TmCdAg2,-0.26401218333333304,0.0,0.0,False,NM,1.2e-06,225
mp-865887,TmCdAu2,-0.660687274999999,0.004863387500004,0.0,False,NM,7e-07,225
mp-1206022,TmCdCu4,-0.24521019500000002,0.0,0.0,False,NM,0.0,216
mp-865983,TmCdHg2,-0.318185343750007,0.0,0.0,False,NM,1.5e-06,225
mp-1072553,TmCdNi4,-0.363832315,0.0,0.0,True,FiM,0.702929799999999,216
mp-865982,TmCdPd2,-0.7535983124999951,0.0,0.0,False,NM,1e-07,225
mp-865202,TmCdPt2,-0.845438252500001,0.0209861375,0.0,False,NM,1.6e-06,225
mp-865206,TmCdRh2,-0.6039427575,0.0,0.0,False,NM,1e-07,225
mp-1187580,TmCo2Sn,-0.298786728750001,0.05823105437500001,0.0,True,FiM,1.0282339,225
mp-1025116,TmCu4Ag,-0.246742937500002,0.0,0.0,False,NM,2e-07,216
mp-30600,TmCu5,-0.197939671666667,0.0,0.0,False,NM,4e-07,216
mp-1187558,TmF3,-4.16378372,0.018205317499999003,6.1669,False,NM,6.93e-05,225
mp-1187604,TmGaCu2,-0.401299694676843,0.040283933333334,0.0,False,NM,0.0002305,225
mp-1187602,TmGaNi2,-0.47573793687500104,0.11014197614582501,0.0,False,NM,9.16e-05,225
mp-1187596,TmGaPd2,-0.890571324999996,0.018588117708329,0.0,False,NM,0.0001468,225
mp-865195,TmGaRh2,-0.881769229375001,0.0,0.0,False,NM,1.8500000000000002e-05,225
mp-24727,TmH2,-0.7999909591666661,0.0,0.0,False,NM,1.98e-05,225
mp-982739,TmHfCo2,-0.2846462275,0.09629948900000201,0.0,True,FiM,1.3257183,225
mp-980201,TmHfIr2,-0.907993967500001,0.043313970000001006,0.0,False,NM,0.0002183,225
mp-865209,TmHfOs2,-0.5468488650000011,0.088303371328123,0.0,False,NM,2e-06,225