material_id,formula,formation_energy,ehull,band_gap,is_magnetic,magnetic_ordering,total_magnetization,spacegroup
mp-1110825,Rb2CeAgI6,-1.403327147666666,0.05817253025000001,0.21280000000000002,True,FM,0.9990342,225
mp-1113397,Rb2CeAuCl6,-2.0056116735,0.128770350041669,0.0,True,FM,0.992796799999999,225
mp-1113597,Rb2CeCuBr6,-1.7965286894999992,0.062892717000001,1.5744,True,FM,0.9414131,225
mp-1113306,Rb2CeCuCl6,-2.105191103499999,0.056217382249998005,0.2559,True,FM,1.0013726,225
mp-1113307,Rb2CeCuF6,-3.086550719499999,0.12443669275000001,0.0,True,FM,0.9967537,225
mp-1110611,Rb2CoAgF6,-2.356622655666667,0.018885782999999,2.009299999999999,False,NM,1e-07,225
mp-1110594,Rb2CoAuF6,-2.1623652555,0.167815693833331,0.9054000000000001,False,NM,0.0001204,225
mp-560878,Rb2CoF6,-2.481685928333333,0.0,1.179,True,FM,1.0,225
mp-1112406,Rb2CoHgF6,-2.273958027750001,0.151575893500002,0.0,True,FM,0.999099699999999,225
mp-1110610,Rb2CrAgF6,-2.736779278666666,0.0,3.0253,True,FM,2.9999911999999993,225
mp-1110593,Rb2CrAuF6,-2.5511064155,0.133517892125002,1.6645999999999992,True,FM,3.0001637,225
mp-560562,Rb2CrF6,-2.958415418333333,0.0065377766666660005,0.0,True,FM,2.0012108,225
mp-1112407,Rb2CrHgF6,-2.57008291875,0.194565653750003,0.0,True,FM,3.6779837,225
mp-1113309,Rb2CuAsF6,-2.394712896249999,0.08219106100000101,1.0685,False,NM,0.0006407,225
mp-1113287,Rb2CuAuCl6,-1.3867248435000001,0.044328251624999,0.0,False,NM,0.001467199999999,225
mp-1111034,Rb2CuAuF6,-2.125885313499999,0.067063419666659,0.0,False,NM,0.0069967,225
mp-1110723,Rb2CuBiBr6,-1.3756930845,0.042909025124997,0.8460000000000001,False,NM,0.000596,225
mp-1110690,Rb2CuBiCl6,-1.6369621595,0.0,1.0756000000000001,False,NM,4.27e-05,225
mp-1113817,Rb2CuBiF6,-2.5127164175,0.08916221304999901,0.9599000000000001,False,NM,1.699999999999999e-06,225
mp-1110765,Rb2CuBiI6,-0.9890770155,0.073651672666668,0.3311,False,NM,0.0018585,225
mp-1206438,Rb2CuF6,-2.275893610555554,0.0,0.0,True,FM,1.0000001,225
mp-1110689,Rb2CuMoBr6,-1.2492365395,0.093297993729164,0.4005,True,FM,2.9982675,225
mp-1110676,Rb2CuMoCl6,-1.5556305435,0.060734896523933005,0.8542000000000001,True,FM,2.9996576,225
mp-1110722,Rb2CuMoI6,-0.831397474499999,0.15735752190277802,0.130799999999999,True,FM,2.999643,225
mp-1113474,Rb2CuNiF6,-2.4479118664999993,0.028578444999999,0.0,True,FiM,0.9995653,225
mp-1111483,Rb2CuPdF6,-2.2264177105,0.022821269499995002,0.0,False,NM,0.001670099999999,225
mp-1113795,Rb2CuRuF6,-2.228017409499999,0.079077822200005,0.0,True,FM,1.0000874,225
mp-1110719,Rb2CuSbBr6,-1.329701577499999,0.040692544249999005,0.402099999999999,False,NM,0.0005109,225
mp-1110686,Rb2CuSbCl6,-1.5882643994999999,0.0,0.9004999999999991,False,NM,3.6800000000000014e-05,225
mp-1110659,Rb2CuSbF6,-2.4788471875,0.11341145137499802,0.9861999999999991,False,NM,0.0003515,225
mp-1110762,Rb2CuSbI6,-0.9503694934999991,0.067877430666667,0.7008000000000001,False,NM,0.0008772,225
mp-1111733,Rb2DyAgCl6,-2.177876610833332,0.006893448649997001,3.7248,False,NM,0.0056276,225
mp-1113655,Rb2DyAuCl6,-2.038942085666666,0.112682098949999,2.189,False,NM,0.0002628,225
mp-1113403,Rb2DyCuCl6,-2.135849725666666,0.042384823369999006,2.5201000000000002,False,NM,0.0004507,225
mp-1111636,Rb2ErAgCl6,-2.181475685666666,0.003275121549999,3.7293000000000003,False,NM,0.000946,225
mp-1113656,Rb2ErAuCl6,-2.042189960499999,0.108464487733333,2.1263,False,NM,0.0061906,225
mp-1113288,Rb2ErCuCl6,-2.1385495995,0.038193376074998,2.2131,False,NM,0.0026904,225
mp-1111732,Rb2EuAgCl6,-2.028006738166666,0.0,0.0,True,FM,5.9999427999999995,225
mp-1113500,Rb2EuAuCl6,-1.9213189270000002,0.063898441714291,0.0,True,FiM,5.999764,225
mp-1113297,Rb2EuCuCl6,-2.056438472000001,0.0,0.0,True,FM,6.484153,225
mp-1110592,Rb2FeAuF6,-2.388655778499999,0.135909609166671,1.1878,True,FM,4.999879799999999,225
mp-20140,Rb2FeCu(CN)6,-0.10842002593749901,0.189333581093746,0.0,True,FM,0.9994310999999991,225
mp-1113487,Rb2FeCuF6,-2.5381276245,0.052830266124995,0.5338,True,FM,5.0007109,225
mp-1113778,Rb2FeHgF6,-2.50263420675,0.09887790875000001,0.0,True,FiM,4.0716109,225
mp-1111731,Rb2GaAgBr6,-1.397193637416666,0.08861813062500001,0.36610000000000004,False,NM,0.0016281,225
mp-1111468,Rb2GaAgCl6,-1.686171565416666,0.06187964512500101,1.213,False,NM,4.6200000000000005e-05,225
mp-1110609,Rb2GaAgF6,-2.6974395524166663,0.0,2.4254000000000002,False,NM,0.000110599999999,225
mp-1111802,Rb2GaAgI6,-0.9920756434166661,0.095813742500001,0.0,False,NM,0.0003973,225
mp-1111718,Rb2GaAuBr6,-1.30455065925,0.141402288249999,0.0,False,NM,0.0029031,225
mp-1111038,Rb2GaAuCl6,-1.56195247225,0.153566062099998,0.0,False,NM,0.00044219999999900006,225
mp-1110591,Rb2GaAuF6,-2.511523400249999,0.10944078688889101,0.7904,False,NM,0.0010301,225
mp-1111793,Rb2GaAuI6,-0.945515125249999,0.1044041435,0.0,False,NM,0.0008188,225
mp-1111036,Rb2GaCuF6,-2.648850464249999,0.038839259500002006,0.3578,False,NM,0.0001468,225
mp-1113384,Rb2GaHgBr6,-1.3824971255,0.107834074499999,0.0,False,NM,0.0018747,225
mp-1113320,Rb2GaHgCl6,-1.6397138755,0.12449945750000001,0.0,False,NM,0.0040865,225
mp-1113779,Rb2GaHgF6,-2.623641556500001,0.073603291166664,0.0,False,NM,0.0048651,225
mp-1113549,Rb2GaHgI6,-1.007771679500001,0.07293333075000001,0.0,False,NM,0.00017329999999900002,225
mp-1111486,Rb2GdAgCl6,-2.172751832666666,0.010413259000002001,2.128,True,FM,7.0,225
mp-8812,Rb2GeF6,-3.043178331111109,0.0049972477777750005,5.975300000000001,False,NM,0.0,225
mp-643101,Rb2H6Pt,-0.379526484722221,0.00027998861111200004,4.063000000000001,False,NM,0.0,225
mp-1113564,Rb2HgAsBr6,-1.2640393065,0.029339934,0.0,False,NM,0.0490255,225
mp-1113319,Rb2HgAsCl6,-1.4856812145,0.051640981249999,0.0,False,NM,0.044756399999999,225
mp-1112408,Rb2HgAsF6,-2.381527555500001,0.095376401750001,0.0,False,NM,0.0049561,225
mp-1113545,Rb2HgAsI6,-0.9358977715000001,0.039465797812498,0.0,False,NM,0.0053863,225
mp-975176,Rb2HgAu,-0.21356119687500102,0.030294065273437,0.0,False,NM,0.004878599999999,225
mp-1113546,Rb2HgAuBr6,-1.18546055275,0.06148723799999901,0.0,False,NM,0.0006242999999990001,225
mp-1113476,Rb2HgAuF6,-2.03702589475,0.100698494666659,0.0,True,FM,0.9842036999999991,225
mp-1113547,Rb2HgBiBr6,-1.37638088675,0.07265852187499901,0.0,False,NM,0.0024518,225
mp-1113548,Rb2HgBiCl6,-1.597890092750001,0.037936624166666,0.0,False,NM,0.0013733,225
mp-1112409,Rb2HgBiF6,-2.471428389750001,0.12484405500000001,0.0,False,NM,0.0138055,225
mp-1111040,Rb2HgBiI6,-1.025602034750001,0.0571564005,0.0,False,NM,0.0022656,225
mp-1111032,Rb2HgIrF6,-2.13537468375,0.10871562074999801,0.0,True,FM,0.997022699999999,225
mp-1112226,Rb2HgMoF6,-2.48205116775,0.12098836566666701,0.0,True,FM,2.0001079,225
mp-1113777,Rb2HgPdF6,-2.15113273575,0.047239170428579,0.0,True,FM,1.8818323000000001,225
mp-1111016,Rb2HgRhF6,-2.19323471075,0.07617919649999001,0.0,False,NM,0.001525399999999,225
mp-1113936,Rb2HgRuF6,-2.24933268075,0.028500692166666,0.0,True,FM,1.9999133,225
mp-1113552,Rb2HgSbBr6,-1.3396130527499999,0.057058671250000005,0.0,False,NM,0.0017063,225
mp-1113385,Rb2HgSbCl6,-1.560806608749999,0.038309227,0.0,False,NM,0.006660999999999,225
mp-1111947,Rb2HgSbF6,-2.47591655875,0.11634208012499801,0.0,False,NM,0.0005586,225
mp-1111041,Rb2HgSbI6,-0.992735469749999,0.045541201499999004,0.0,False,NM,0.0005761,225
mp-1111729,Rb2InAgBr6,-1.437007130333333,0.033568483124998,0.21430000000000002,False,NM,0.00042869999999900005,225
mp-1111634,Rb2InAgCl6,-1.710742968333332,0.0,1.293,False,NM,0.00023989999999900002,225
mp-1110608,Rb2InAgF6,-2.621729162333333,0.0,1.8555000000000001,False,NM,0.0002844,225
mp-1111801,Rb2InAgI6,-1.0402692563333331,0.078985024041664,0.0,False,NM,0.0022283,225
mp-1110632,Rb2InAsBr6,-1.358401082916666,0.09358307883333301,0.6249,False,NM,0.0005905,225
mp-1114074,Rb2InAsCl6,-1.598376772916666,0.071030806222223,1.2307000000000001,False,NM,4.43e-05,225
mp-1113906,Rb2InAsF6,-2.531457232916666,0.153155704285715,2.0591,False,NM,0.0014402999999990002,225
mp-1114134,Rb2InAsI6,-0.9898315269166661,0.098516990666663,0.0,False,NM,0.0003406,225
mp-1111717,Rb2InAuBr6,-1.3388286921666661,0.09188810074999801,0.0,False,NM,0.0029811,225
mp-1110793,Rb2InAuCl6,-1.584695062166667,0.037625060833332,0.0,False,NM,0.0006473,225
mp-1110590,Rb2InAuF6,-2.436522168166667,0.13250282004762,0.5174000000000001,False,NM,0.000312,225
mp-1111791,Rb2InAuI6,-0.9807570131666661,0.10170001841666201,0.0,False,NM,2.86e-05,225
mp-1114071,Rb2InBiCl6,-1.718065487166666,0.0,1.691599999999999,False,NM,0.0022773,225
mp-1113933,Rb2InBiF6,-2.6494612701666673,0.081453989261904,2.5538,False,NM,0.0,225
mp-1113404,Rb2InCuBr6,-1.398818896166666,0.049998546999999005,0.0,False,NM,0.000495,225
mp-1113598,Rb2InCuCl6,-1.677369040166667,0.0,0.0,False,NM,0.0003011,225
mp-1113807,Rb2InCuF6,-2.589391039166666,0.049996472553568004,0.0,False,NM,0.0002084,225
mp-1114072,Rb2InGaBr6,-1.489182689916666,0.050291439999999,1.146199999999999,False,NM,0.0006728999999990001,225
mp-1114060,Rb2InGaCl6,-1.762980284916666,0.055148241812502004,1.5346000000000002,False,NM,1.8100000000000003e-05,225
mp-989566,Rb2InGaF6,-2.802686308916666,0.0,3.2609,False,NM,0.000350999999999,225
mp-1114135,Rb2InGaI6,-1.084914683916666,0.050344178499998005,0.2298,False,NM,0.00068,225
mp-1113550,Rb2InHgBr6,-1.412913932416667,0.062181112999999004,0.0,False,NM,0.0033208,225
mp-1113321,Rb2InHgCl6,-1.6577197284166671,0.022442103999999,0.0,False,NM,0.0052191,225
mp-1112225,Rb2InHgF6,-2.5527608854166672,0.085270789535714,0.0,False,NM,0.0881671,225
mp-1113551,Rb2InHgI6,-1.044746931416667,0.068495841666663,0.0,False,NM,0.028092199999999002,225
mp-1114131,Rb2InSbBr6,-1.421715585166666,0.06469940441666601,0.6828999999999991,False,NM,0.0,225
mp-1114061,Rb2InSbCl6,-1.6703260341666661,0.026838979249998,1.2828,False,NM,0.0015033,225
mp-1113930,Rb2InSbF6,-2.615952154166666,0.107785372666664,2.231999999999999,False,NM,0.0009073,225
mp-1114191,Rb2InSbI6,-1.049154717166666,0.06578243183333,0.5377000000000001,False,NM,0.002021,225
mp-1110589,Rb2IrAuF6,-1.978898668499999,0.252661800999997,0.493799999999999,False,NM,0.0002084,225
mp-1111727,Rb2LaAgCl6,-2.187830372166666,0.043649028249999,3.573,False,NM,0.0007052,225
mp-1113498,Rb2LaAuCl6,-2.051405501,0.14528238612500202,2.301,False,NM,0.0,225
mp-1113343,Rb2LaCuCl6,-2.150020003,0.073242556250001,2.1713,False,NM,0.00046199999999900005,225
mp-1113747,Rb2LiAlF6,-3.423521409833333,0.000632930833333,7.248,False,NM,0.0,225
mp-1113748,Rb2LiAsF6,-2.808733546583333,0.0,4.5851,False,NM,0.0001712,225
mp-1114414,Rb2LiAuCl6,-1.5543466068333331,0.12504583325000102,0.0,False,NM,0.3588973,225
mp-1113735,Rb2LiAuF6,-2.358340762833333,0.09124064599999901,0.47750000000000004,True,FM,2.000005,225
mp-1110713,Rb2LiBiBr6,-1.645216757833333,0.033182222374999,2.9149000000000003,False,NM,0.0003212,225
mp-1110684,Rb2LiBiCl6,-1.9322716058333331,0.0,3.6153999999999993,False,NM,0.0004495,225
mp-1110656,Rb2LiBiF6,-2.934599426833333,0.011539821500002,4.9741,False,NM,1.86e-05,225
mp-1110751,Rb2LiBiI6,-1.2271518188333341,0.051358148500000006,1.9334,False,NM,0.0048246,225
mp-1110712,Rb2LiCeBr6,-2.093155205833333,0.029922663000001,0.29250000000000004,True,FM,0.999742999999999,225
mp-1110683,Rb2LiCeCl6,-2.424015683833333,0.028026736000001003,0.3224,True,FM,1.0001351,225
mp-1110655,Rb2LiCeF6,-3.516280681833333,0.023471473750001002,0.5522,True,FM,0.9999876,225
mp-1110750,Rb2LiCeI6,-1.613170874833333,0.036895959499999,2.1287,True,FM,0.9991226,225
mp-1113736,Rb2LiCoF6,-2.7184617018333332,0.0,2.8411,False,NM,6.5e-06,225
mp-567628,Rb2LiDyBr6,-2.115091375999999,0.0,4.1439,False,NM,0.00019569999999900003,225
mp-1113980,Rb2LiDyCl6,-2.462603035999999,0.0045841164,5.1062,False,NM,0.0001256,225
mp-1113981,Rb2LiErCl6,-2.466211088833333,0.0009568113000000001,5.211499999999999,False,NM,0.0,225
mp-1113978,Rb2LiEuCl6,-2.274363513333333,0.019456092750001,0.0,True,FM,6.0,225
mp-1113732,Rb2LiGaF6,-3.076162571583333,0.013793260500000001,5.9815000000000005,False,NM,0.000323,225
mp-1113979,Rb2LiGdCl6,-2.456125571833333,0.009456612750001,2.8184,True,FM,7.0000213,225
mp-1205883,Rb2LiHoCl6,-2.463324960333332,0.003036650399998,5.1901,False,NM,0.0,225
mp-989583,Rb2LiInCl6,-1.980378803499999,0.0,2.8282,False,NM,0.0001681,225
mp-1113733,Rb2LiInF6,-3.013948160499999,0.0,5.2622,False,NM,5.8100000000000016e-05,225
mp-1113710,Rb2LiIrF6,-2.5597485698333333,0.034208538250002,2.024,False,NM,0.00023319999999900002,225
mp-1113975,Rb2LiLaCl6,-2.470843930333333,0.043052563,4.5047,False,NM,0.0011714,225
mp-1113711,Rb2LiMnF6,-2.948795114626437,0.061861960999994005,0.0,True,FM,3.9999936,225
mp-1110711,Rb2LiMoBr6,-1.542953530833333,0.054742098458334006,1.2695,True,FM,2.9982735,225
mp-1110668,Rb2LiMoCl6,-1.871898910833333,0.025383649750001003,1.537999999999999,True,FM,2.9991632999999993,225
mp-1110654,Rb2LiMoF6,-2.989268701833333,0.0,4.622999999999999,True,FM,2.9999862,225
mp-1110749,Rb2LiMoI6,-1.094949360833333,0.10602876958333501,0.9751999999999991,True,FM,2.9995557,225
mp-1110630,Rb2LiNbF6,-3.022893011833333,0.08129740175000001,0.0,True,FM,1.9999985999999992,225
mp-1110710,Rb2LiNdBr6,-2.104992439583333,0.033354054500001,4.001,False,NM,0.0003496,225
mp-1110682,Rb2LiNdCl6,-2.438023420583333,0.032933567250000004,4.8504000000000005,False,NM,1.6400000000000002e-05,225
mp-1110653,Rb2LiNdF6,-3.529860740583333,0.050832804000001,6.6083,False,NM,0.002434399999999,225
mp-1110748,Rb2LiNdI6,-1.624093795583333,0.042163135500000004,2.9632,False,NM,0.0013092,225
mp-1113709,Rb2LiNiF6,-2.609514110833333,0.047657322500001,0.0,True,FM,1.000461,225
mp-1113706,Rb2LiPdF6,-2.504378272833333,0.041599797750005,0.0,True,FM,0.9999904,225
mp-1110709,Rb2LiPrBr6,-2.100358805,0.039316769,3.9853,False,NM,0.0003738,225
mp-1110681,Rb2LiPrCl6,-2.430654386999999,0.040871347249999,4.8241,False,NM,3.8e-05,225
mp-1110652,Rb2LiPrF6,-3.512924644999999,0.062687525000002,6.547000000000001,False,NM,0.001454,225
mp-1110747,Rb2LiPrI6,-1.622273131999999,0.047546028750002,2.9512,False,NM,0.0012457,225
mp-1113707,Rb2LiRhF6,-2.645169458833333,0.0,1.7225000000000001,False,NM,4.68e-05,225
mp-1113705,Rb2LiRuF6,-2.636409638833333,0.0,0.0,True,FM,0.949611499999999,225
mp-1110708,Rb2LiSbBr6,-1.593122193833333,0.032909101750003,2.3274,False,NM,0.0004463,225
mp-1110680,Rb2LiSbCl6,-1.8781652158333322,0.0,2.9411,False,NM,0.0,225
mp-1110651,Rb2LiSbF6,-2.898098412833333,0.018361661749999002,4.2054,False,NM,1.3e-06,225
mp-1110746,Rb2LiSbI6,-1.181190730833333,0.052837472500002,1.721499999999999,False,NM,0.0006849,225
mp-1113928,Rb2LiScCl6,-2.400856649333332,0.0,3.7539,False,NM,1.699999999999999e-06,225
mp-1113703,Rb2LiScF6,-3.583158809333333,0.0,6.7042,False,NM,5.799999999999999e-06,225
mp-1113973,Rb2LiSmCl6,-2.4479876173333333,0.02071904775,4.918699999999999,False,NM,6.25e-05,225
mp-1110707,Rb2LiTaBr6,-1.5761496645666662,0.129242788725002,0.0,True,FM,1.9988059999999992,225
mp-1110667,Rb2LiTaCl6,-1.917543199566666,0.121706030449996,0.0,True,FM,1.9995717,225
mp-1110650,Rb2LiTaF6,-2.956910274566666,0.237612471506665,0.0,True,FM,1.9999364,225
mp-1110745,Rb2LiTaI6,-1.112902064566666,0.14986519871875,0.0,True,FM,1.9992089,225
mp-1113974,Rb2LiTbCl6,-2.4614929005,0.006461579699998001,5.0624,False,NM,9.380000000000003e-05,225
mp-1113704,Rb2LiTiF6,-3.317555614166666,0.0,0.0,True,FM,0.999954,225
mp-1114027,Rb2LiTlBr6,-1.525932038166667,0.0,0.5529000000000001,False,NM,0.0002548,225
mp-989579,Rb2LiTlCl6,-1.799548220166667,0.016350675749999002,1.5593,False,NM,0.00011659999999900001,225
mp-1113693,Rb2LiTlF6,-2.730992243166667,0.0,3.4666,False,NM,0.0007745,225
mp-1113971,Rb2LiTmCl6,-2.466921009833334,0.0,5.2728,False,NM,0.0002084,225
mp-1206403,Rb2LiVCl6,-2.021964439833334,0.021466898999998003,0.0,True,FM,1.9999869,225
mp-1113694,Rb2LiVF6,-3.094341530833333,0.003611295499993,0.0,True,FM,1.9999936999999992,225
mp-1110706,Rb2LiYBr6,-2.112229293833334,0.0,4.042,False,NM,0.0004278,225
mp-1110679,Rb2LiYCl6,-2.456822779833333,0.005719421650000001,4.9273,False,NM,7.670000000000002e-05,225
mp-1110649,Rb2LiYF6,-3.583960213833333,0.0,6.8909,False,NM,0.0006900999999990001,225
mp-1110744,Rb2LiYI6,-1.620097080833333,0.027094288999999,2.9884,False,NM,0.0009157,225
mp-1205808,Rb2LiYbCl6,-2.352058086916666,0.0,0.0,False,NM,0.0,225
mp-1111632,Rb2LuAgCl6,-2.181767257333333,0.0,3.681,False,NM,0.0,225
mp-1113494,Rb2LuAuCl6,-2.042162392166666,0.097159785875001,2.0926,False,NM,0.0003144,225
mp-1111035,Rb2LuCuCl6,-2.137519841166666,0.033677371250000004,2.436699999999999,False,NM,0.007419899999999001,225
mp-1110606,Rb2MnAgF6,-2.6029656234597702,0.020272636999996003,0.0,True,FM,3.999954,225
mp-1110588,Rb2MnAuF6,-2.443899928293103,0.168026216999991,0.0,True,FM,4.0000304,225
mp-571648,Rb2MnCl6,-1.839553694770114,0.0,1.2037,True,FM,3.0000003,225
mp-1113808,Rb2MnCuF6,-2.6644300392931033,0.010917833999999,0.0,True,FiM,4.000158,225
mp-558111,Rb2MnF6,-2.9007038969923373,0.001436264444444,3.3045,True,FM,3.0000003,225
mp-1209571,Rb2MnFe(CN)6,-0.25823017455819003,0.072634569999996,0.0,True,FM,1.0005217,225
mp-1113488,Rb2MnHgF6,-2.620198667543104,0.040591604499999004,0.3673,True,FM,4.9999587,225
mp-1113634,Rb2MnTlF6,-2.722546698626437,0.047400243750003006,0.0,True,FM,4.0000075,225
mp-1110587,Rb2MoAuF6,-2.4014443765,0.15393066758333201,1.5341,True,FM,3.0002042,225
mp-1205757,Rb2MoBr6,-1.483272751666669,0.0,0.0,True,FM,1.999999299999999,225
mp-1113929,Rb2NaAlCl6,-2.144124522637931,0.035774359000000006,4.2244,False,NM,0.0009813,225
mp-1079583,Rb2NaAlF6,-3.430538285637931,0.0,6.791,False,NM,0.0,225
mp-1114025,Rb2NaAsBr6,-1.513598301387931,0.008976010499999,2.5701,False,NM,0.001144099999999,225
mp-1113967,Rb2NaAsCl6,-1.792129315387931,0.0,3.1484,False,NM,0.0006468,225
mp-989523,Rb2NaAsF6,-2.798271798387934,0.0,4.543,False,NM,0.0,225
mp-1114026,Rb2NaAuBr6,-1.3255393136379299,0.11875100300000001,0.0,False,NM,0.0750042,225
mp-1114668,Rb2NaAuCl6,-1.54909807063793,0.1221427285,0.0,True,FM,1.875097799999999,225
mp-1113688,Rb2NaAuF6,-2.341675199637931,0.060500451999998005,0.591,True,FM,1.999992199999999,225
mp-1110743,Rb2NaBiBr6,-1.64683781763793,0.031396662374999,3.136,False,NM,0.0027725,225
mp-989520,Rb2NaBiCl6,-1.92988604163793,0.0,3.7342,False,NM,0.0009796,225
mp-560037,Rb2NaBiF6,-2.9172050726379313,0.0,4.9249,False,NM,0.0,225
mp-1110772,Rb2NaBiI6,-1.233825945637931,0.0502276315,2.1072,False,NM,0.005095199999999,225
mp-1110742,Rb2NaCeBr6,-2.093176947637931,0.029736421000000002,3.233399999999999,True,FM,0.9980017,225
mp-1110704,Rb2NaCeCl6,-2.42006482863793,0.023825950250002,3.9696000000000002,True,FM,0.9990169,225
mp-1110664,Rb2NaCeF6,-3.49756768263793,0.0,0.280199999999999,True,FM,0.998159799999999,225
mp-1110771,Rb2NaCeI6,-1.6183384786379311,0.037271965499999005,0.26170000000000004,True,FM,1.0205524,225
mp-559563,Rb2NaCoF6,-2.7226094986379312,0.0,0.0,False,NM,0.0,225
mp-1206059,Rb2NaCrCl6,-1.9874702516379301,0.0,1.3631,True,FM,3.0027944,225
mp-560936,Rb2NaCrF6,-3.116374354637931,0.0,4.1608,True,FM,3.0000007,225
mp-1206176,Rb2NaCuF6,-2.573304985637931,0.0,0.7354,True,FM,1.971670099999999,225
mp-1114023,Rb2NaDyCl6,-2.460917983804592,0.007330368999996,5.1403,False,NM,0.0,225
mp-1114024,Rb2NaErCl6,-2.465027089637931,0.0,5.1645,False,NM,9.77e-05,225
mp-13815,Rb2NaErF6,-3.60256619763793,0.0,6.4981,False,NM,0.0,225
mp-1114020,Rb2NaEuCl6,-2.266146713137931,0.019521252000001002,0.0,True,FM,6.0005588,225
mp-558078,Rb2NaFeF6,-2.9477506416379313,0.0,4.118600000000001,True,FM,4.9999623,225
mp-1110631,Rb2NaGaBr6,-1.635602664387931,0.083923606999996,1.602399999999999,False,NM,0.000581,225
mp-1113926,Rb2NaGaCl6,-1.958261120387931,0.056494751499998004,2.9042,False,NM,0.0011545,225
mp-989400,Rb2NaGaF6,-3.07613155538793,0.0,5.9026,False,NM,5.7e-05,225
mp-1114019,Rb2NaGdCl6,-2.453550768637931,0.0038797750000000002,2.711,True,FM,7.0000251,225
mp-15317,Rb2NaHoF6,-3.59337799813793,0.001350647999999,6.481899999999999,False,NM,0.0,225
mp-1114017,Rb2NaInBr6,-1.677307463304596,0.026982653499999003,2.0049,False,NM,0.0001313,225
mp-989547,Rb2NaInCl6,-1.9831410013045971,0.0,3.0533,False,NM,0.00016319999999900002,225
mp-989578,Rb2NaInF6,-3.002924792304597,0.0,5.247199999999999,False,NM,0.0003148,225