material_id,formula,formation_energy,ehull,band_gap,is_magnetic,magnetic_ordering,total_magnetization,spacegroup
mp-1522542,BaHfZrSnO6,-3.2382949985,0.12508813400000202,2.6096999999999992,False,NM,0.0,216
mp-1183299,BaHg2Bi,-0.47627460125000504,0.002170987499998,0.0,False,NM,2e-07,225
mp-864618,BaHg2Pb,-0.430415881250005,0.0,0.0,False,NM,1.4e-06,225
mp-1214409,BaHoFe4O7,-2.134210463846152,0.12001699613324102,0.0,True,FM,16.9999476,216
mp-1147688,BaIn(Cu3O4)2,-1.147927347916667,0.19631329703125103,0.0,False,NM,0.0024513,225
mp-1214344,BaInFe4O7,-1.6781289308974352,0.185042364258229,0.0,True,FM,17.0489948,216
mp-1522067,BaInFeWO6,-2.089323707666666,0.1948221645,0.0,True,FM,4.9754546,216
mp-1227951,BaLa(CoO3)2,-2.1321763295,0.1917157455,0.0,True,FM,5.4200824,225
mp-1227910,BaLa(FeO3)2,-2.459371650500001,0.042231816666665006,0.0,True,FM,8.9991252,225
mp-1229299,BaLaCrMoO6,-2.7249114925000013,0.136250090285706,0.0,True,FM,4.995957,216
mp-1520679,BaLaEuSbO6,-2.922752303,0.18369689593750102,1.0398,True,FM,6.9999998,216
mp-1521896,BaLaEuWO6,-2.919986537,0.23658796145832603,0.0,True,FM,7.9999999,216
mp-41414,BaLaMgBiO6,-2.621314345,0.09593164193749801,1.4504000000000001,False,NM,2.9700000000000004e-05,216
mp-39288,BaLaMgNbO6,-3.313065879,0.090399456583309,2.792899999999999,False,NM,0.001074799999999,216
mp-40251,BaLaMgTaO6,-3.434776796733334,0.07956570149998701,2.9706,False,NM,0.000159,216
mp-1227844,BaLaMn2O6,-2.685606947086207,0.15509130226669401,0.0,True,FM,6.9999889,225
mp-1227886,BaLaMnInO6,-2.59746704395977,0.15494568419166402,0.7082,True,FM,3.0000392,216
mp-1521556,BaLaMnInO6,-2.263858968959771,0.48855375919166405,0.0,True,FM,3.1139111,216
mp-40356,BaLaMnMoO6,-2.644228270293104,0.193645975828825,0.382399999999999,True,FM,6.0003792,216
mp-1227855,BaLaMnRuO6,-2.499961502293104,0.190924160466654,0.0,True,FiM,2.0,216
mp-1227851,BaLaNbCrO6,-3.0665843775,0.127025262016658,0.0,True,FiM,1.999924,216
mp-1519489,BaLaNbCrO6,-2.0991161565,1.094493483016657,0.0,True,FiM,0.5437274,216
mp-41283,BaLaTaMnO6,-3.186556689026438,0.12389660616665601,1.0025,True,FM,5.00002,216
mp-42054,BaLaTaZnO6,-3.129271671233333,0.12028978183333301,2.237699999999999,False,NM,0.0006711999999990001,216
mp-1227861,BaLaTiCrO6,-3.290828485333333,0.053622175750016,2.2522,True,AFM,1e-07,216
mp-1227852,BaLaTiCuO6,-2.837867513833333,0.12283129033522401,0.0,True,FM,1.9113509,216
mp-1519829,BaLaTiCuO6,-1.9011115578333322,1.059587246335223,0.0,True,FM,1.4823119,216
mp-1227842,BaLaTiFeO6,-3.112630032333333,0.059971858499999,1.783799999999999,True,AFM,0.0,216
mp-1516690,BaLiCeSbO6,-2.771565060333333,0.138456554888888,1.9094000000000002,False,NM,0.0,216
mp-1518397,BaLiHfBiO6,-2.5760085393333343,0.134998252875001,1.1166,False,NM,0.0,216
mp-40189,BaLiLaTeO6,-2.6664141295,0.030170701574992003,3.007399999999999,False,NM,7.4e-06,216
mp-1522600,BaLiNbBiO6,-2.402924606333333,0.18600282996876302,0.0,False,NM,0.0004372,216
mp-41219,BaLiPrTeO6,-2.610438096166666,0.06587202262500201,3.2392,False,NM,0.0002916,216
mp-1517901,BaLiSnBiO6,-1.9384404228333332,0.172943179874979,0.0001,False,NM,0.0,216
mp-1521096,BaLiTbSbO6,-2.581870762,0.179536400217775,0.0,False,NM,1.0,216
mp-1517265,BaLiZrBiO6,-2.507712236333334,0.129557575874999,1.0751,False,NM,0.0,216
mp-1214329,BaLuFe4O7,-2.086622287820512,0.186109811806315,0.0,True,FM,17.0001803,216
mp-1183328,BaMg3,0.01829188625,0.06911604551136301,0.0,False,NM,0.0022326,225
mp-631498,BaMgOs2,1.3293373637500001,1.349463055000001,0.0,False,NM,0.00044689999999900006,225
mp-1523111,BaMnInWO6,-2.191957331459769,0.19480262683333602,0.0,True,FM,4.5399525,216
mp-1523372,BaMnNb2O6,-2.693586343793105,0.20090272470689602,0.0,True,FM,5.5610154,225
mp-1518034,BaMnSnWO6,-2.262229163293103,0.10770235699999901,1.6954,True,FM,5.0000005,216
mp-1057758,BaN,-0.12093026750000001,0.517356299166666,0.0,True,FM,0.999812599999999,225
mp-1183312,BaNa2Pb,-0.24154651568965402,0.052564518060344005,0.0,False,NM,2.5600000000000002e-05,225
mp-1183338,BaNa2Sn,-0.28157253193965404,0.06974940056034501,0.0,False,NM,1.3e-06,225
mp-1516358,BaNaBiWO6,-2.2729374421379323,0.063933809187505,2.2936,False,NM,0.0,216
mp-1517699,BaNaCaMnO6,-2.032388149931035,0.161807642069448,0.0,True,FiM,3e-07,216
mp-1519625,BaNaCeBiO6,-2.561033239137931,0.052127695624998006,1.6438000000000001,False,NM,0.0,216
mp-1519179,BaNaCeFeO6,-2.4360256111379313,0.112334819999996,0.0,True,FM,3.0000005,216
mp-1519131,BaNaCeMnO6,-2.583574797931034,0.12359426183333401,0.0,True,FiM,4.0000004,216
mp-1521935,BaNaCeNbO6,-3.18116214213793,0.07755870408334001,2.025599999999999,False,NM,0.0,216
mp-1520760,BaNaCeSbO6,-2.8173688911379298,0.035264226722217004,1.8811,False,NM,0.0,216
mp-1520354,BaNaCeWO6,-2.84301264013793,0.098385200562493,0.0,True,FM,1.0,216
mp-1520399,BaNaDyWO6,-2.9272165753045973,0.00048431718748600004,2.8635,False,NM,0.0,216
mp-1520230,BaNaEuFeO6,-2.05422294963793,0.177944571437501,0.0,True,FiM,7.9999946,216
mp-1519543,BaNaEuMnO6,-2.110339325431036,0.280049259801383,0.0,True,FiM,7.0000002,216
mp-1521429,BaNaEuSeO6,-2.204705889872307,0.19832888812500102,0.0,True,FM,5.9999998,216
mp-1518239,BaNaEuWO6,-2.676956901637932,0.110775685187498,0.0,True,FM,6.0,216
mp-1517014,BaNaGdWO6,-2.8895061221379312,0.019339466895823002,2.8189,True,FM,7.0000002,216
mp-1182061,BaNaH6Ir,-0.628337474319922,0.0,3.223099999999999,False,NM,0.0,216
mp-1516939,BaNaHfBiO6,-2.619870952137931,0.06361672700000001,1.0663,False,NM,0.0,216
mp-867147,BaNaHg2,-0.39486731409482906,0.0,0.0,False,NM,2.4800000000000003e-05,225
mp-1520093,BaNaLaFeO6,-2.201908446637931,0.143476801949999,0.0,True,FM,3.9999994,216
mp-1522946,BaNaLaMnO6,-2.327614653431035,0.221337388083329,0.0,True,FiM,0.999999499999999,216
mp-1517423,BaNaLaSeO6,-2.388825491872306,0.132738086874995,2.0473,False,NM,0.0,216
mp-1519691,BaNaLaWO6,-2.850150069637931,0.06754218518749601,2.9179,False,NM,0.0,216
mp-1518849,BaNaMnBiO6,-1.856830803931035,0.178271986833332,0.0,True,FM,3.0049608,216
mp-1516730,BaNaNbBiO6,-2.452360199137931,0.09049703637499201,0.0,False,NM,1.5e-06,216
mp-1516692,BaNaNdFeO6,-2.174832364887932,0.14327258449999,0.0,True,FM,3.9999995,216
mp-1517829,BaNaNdMnO6,-2.307121411681036,0.16979216633333302,0.0,True,FiM,0.999999499999999,216
mp-1520207,BaNaNdSeO6,-2.358840957122306,0.130232377249995,1.8960999999999992,False,NM,0.0,216
mp-1518258,BaNaNdWO6,-2.839237538887931,0.045707533718748,2.825699999999999,False,NM,0.0,216
mp-1522783,BaNaPrBiO6,-2.251373172304599,0.131668022437499,0.0,False,NM,1.0,216
mp-1522267,BaNaPrFeO6,-2.156300456304598,0.14689151787500002,0.0,True,FM,3.9999994,216
mp-1518595,BaNaPrNbO6,-2.883088558304597,0.13970400047082002,0.0,False,NM,0.999999899999999,216
mp-1521652,BaNaPrSbO6,-2.533492212304597,0.096012027877776,0.0,False,NM,0.999999899999999,216
mp-1520242,BaNaPrSeO6,-2.342545628538972,0.132288273124994,1.9163000000000001,False,NM,0.0,216
mp-1519147,BaNaPrWO6,-2.818332404304598,0.045422617093755,2.8167,False,NM,0.0,216
mp-1519260,BaNaPrWO6,-2.720117146304598,0.143637875093755,3.0615,False,NM,0.0,216
mp-961774,BaNaSb,-0.694239730459769,0.118649861777776,0.42289999999999905,False,NM,8.910000000000002e-05,216
mp-1517995,BaNaSbWO6,-2.24982658413793,0.134893559553559,1.394299999999999,False,NM,0.0,216
mp-1517761,BaNaSmMnO6,-2.338383016431035,0.156200546363884,0.0,True,FiM,0.999999699999999,216
mp-1517581,BaNaSmSeO6,-2.382095805872306,0.129736926749994,1.8646,False,NM,0.0,216
mp-1516529,BaNaSmWO6,-2.87197639663793,0.027866419765625,2.8395,False,NM,0.0,216
mp-962067,BaNaSn,-0.17681190545976902,0.29161733787356203,0.0,False,NM,0.0299186,216
mp-1517547,BaNaSnBiO6,-1.9828017026379312,0.10106278700000301,0.0,False,NM,0.0,216
mp-1522792,BaNaSrMnO6,-2.037039118931035,0.153320821833333,0.0,True,FiM,7e-07,216
mp-1522602,BaNaTbBiO6,-2.343332504804598,0.109043396843748,0.0,False,NM,1.0,216
mp-1517370,BaNaTbWO6,-2.9172991638045973,0.008678987218755001,2.8478,False,NM,0.0,216
mp-1227835,BaNaTiNbO6,-3.137727508471265,0.030822862999997,1.565099999999999,False,NM,0.0007635,216
mp-1183318,BaNaTl2,-0.25723309701149705,0.031585659655176006,0.0,False,NM,0.017693999999999002,225
mp-1516963,BaNaYWO6,-2.913068630137931,0.007841522895823001,2.8552,False,NM,0.0,216
mp-1520882,BaNaZrBiO6,-2.553174009137932,0.05657668999999901,1.0145,False,NM,0.0,216
mp-1519828,BaNb2CrO6,-2.713847554999999,0.18064151349998703,0.0,True,FM,4.7459269,225
mp-1520754,BaNbInSnO6,-2.476433066166667,0.14007380938333902,2.673,False,NM,0.0,216
mp-1520199,BaNbInWO6,-2.420012677666666,0.18617182702780002,0.0,True,FM,2.0,216
mp-631491,BaNbTc2,0.9548474250000001,1.019612406249999,0.0,False,NM,0.0055371,225
mp-1227836,BaNd(FeO3)2,-2.39824870475,0.065094845666665,0.0,True,FM,9.000131,225
mp-1517440,BaNdCrSnO6,-2.7106270272499993,0.154028482750002,1.921999999999999,True,FM,2.999999899999999,216
mp-1519745,BaNdDyFeO6,-2.829796641916667,0.19199220354166402,0.0,True,FM,4.0000004,216
mp-1518593,BaNdDyMnO6,-3.01951728170977,0.172103435708331,2.0617,True,FiM,3.0000003,216
mp-1520271,BaNdEuBiO6,-2.659136023250001,0.264257456874998,0.0,True,FM,6.9987923,216
mp-1517804,BaNdEuFeO6,-2.61146170325,0.27035883654166604,0.0,True,FiM,3.3066693,216
mp-1518383,BaNdEuNbO6,-3.284056928250001,0.11200032687499101,0.5202,True,FM,6.9999999,216
mp-1518563,BaNdEuSbO6,-2.9398086512500012,0.14375772418750102,0.6954,True,FM,6.9980835,216
mp-1522754,BaNdEuVO6,-3.03273746625,0.235222351475002,0.056599999999999005,True,FM,7.0000002,216
mp-1522438,BaNdEuWO6,-2.917574650250001,0.20753193829166602,0.0,True,FM,7.9999998,216
mp-1519858,BaNdFeSnO6,-2.555025121249999,0.126912,2.0832,True,FM,5.0000003,216
mp-1516816,BaNdHfZrO6,-3.52449929975,0.19531721561249402,0.0,False,NM,0.00018769999999900002,216
mp-1521256,BaNdMnSnO6,-2.6054278950431042,0.17004564699999802,0.0,True,FM,3.9999998,216
mp-1522954,BaNdNiBiO6,-2.13297528975,0.215222618999993,0.3204,True,FM,2.0,216
mp-1342,BaO,-2.8236427075,0.0,2.0906,False,NM,0.0,225
mp-1518311,BaPrDySnO6,-3.051191850833333,0.182768018968747,2.8386,False,NM,0.0,216
mp-1522037,BaPrDyTiO6,-3.501999767666666,0.191232575249999,2.6390000000000002,False,NM,0.0,216
mp-1520444,BaPrEuFeO6,-2.635110254666666,0.23364104210416503,0.0,True,FM,9.9999999,216
mp-1521276,BaPrEuNbO6,-3.257031353666667,0.125956658437498,0.557299999999999,True,FM,6.9999999,216
mp-1517318,BaPrEuSbO6,-2.916536210666668,0.15151068681250301,0.6932,True,FM,6.9999999,216
mp-1519650,BaPrEuWO6,-2.8943012376666672,0.213729636333329,0.0,True,FM,7.9999999,216
mp-1520852,BaPrFeSnO6,-2.565340856666667,0.106934073999999,2.074799999999999,True,FM,5.0000003,216
mp-1522971,BaPrInWO6,-2.647926801833333,0.09803612226388501,1.9172,False,NM,0.0,216
mp-1227832,BaPrNbCoO6,-2.7956067141666683,0.20597457512500303,0.0,True,FM,2.9817982,216
mp-631703,BaRe2Sn,1.298175267499998,1.649497199999999,0.0,False,NM,0.001423,216
mp-1183358,BaRe3,1.4774513981249981,1.4774513981249981,0.0,False,NM,0.0003448,225
mp-1500,BaS,-2.329565223749999,0.0,2.1488,False,NM,0.0,225
mp-3307,BaSO4,-2.5749796362499993,0.132132953333334,4.5086,False,NM,0.0,216
mp-631492,BaScIr,0.901431278333333,1.607075240000001,0.0,False,NM,0.00020679999999900003,216
mp-1253,BaSe,-2.283761781171875,0.0,1.948799999999999,False,NM,0.0,225
mp-631544,BaSiB,1.162864000277778,1.550995508611112,0.0,False,NM,0.0038315999999990005,216
mp-631504,BaSiTc2,1.002306545,1.2465010181249991,0.0,False,NM,0.0001175,216
mp-1517794,BaSmCrSnO6,-2.688117325999999,0.19115278975000102,1.959699999999999,True,FM,2.9999998,216
mp-1520619,BaSmEuBiO6,-2.696046193000001,0.24744856856249803,0.0,True,FM,6.9937302,216
mp-1517521,BaSmEuFeO6,-2.651281116,0.25064070522916104,0.0,True,FM,9.9999997,216
mp-1517753,BaSmEuMnO6,-2.813087575793105,0.258666117395831,0.0,True,FM,9.0000003,216
mp-1516659,BaSmEuSbO6,-2.977187416000001,0.12618238943749902,0.5838999999999991,True,FM,7.0,216
mp-1516465,BaSmEuVO6,-3.072940971,0.21281617388748703,0.0,True,FM,6.9449834,216
mp-1517380,BaSmEuWO6,-2.9597227630000003,0.18317242358333402,0.0,True,FM,7.9999999,216
mp-1519243,BaSmFeSnO6,-2.532077728999999,0.163558221750012,2.106899999999999,True,FM,5.0000001,216
mp-1227741,BaSr(MoO3)2,-2.509711093,0.04715631249999801,0.0,True,FM,3.9965897,225
mp-1227736,BaSr(SnO3)2,-2.584107279,0.028306175750000002,0.6697000000000001,False,NM,7.650000000000003e-05,225
mp-1183321,BaSr2Ca,0.021990865000000002,0.024299925000000003,0.0,False,NM,0.0005828,225
mp-1183392,BaSr2Eu,0.042798028749998,0.045107088749998005,0.0,True,FM,7.4838876,225
mp-1227824,BaSr2Np,0.6608780403124991,0.6631871003124991,0.0,True,FM,5.0889421,216
mp-1183324,BaSr3,0.011971805,0.015435395000000001,0.0,False,NM,0.6476869,225
mp-1518516,BaSrBiSbO6,-2.408665435999999,0.055639574200005,1.6669,False,NM,0.0,216
mp-1519678,BaSrCaCrO6,-2.5871239040000003,0.166005722499996,0.5585,False,NM,0.0,216
mp-1521728,BaSrCaFeO6,-2.353275510999999,0.07047761500001501,0.0,True,FM,4.0000003,216
mp-1517356,BaSrCaMnO6,-2.4710590607931042,0.100550921261902,0.0,True,FiM,1.0000004,216
mp-1227642,BaSrCaMoO6,-2.8710762930000002,0.039743627249999004,2.2592,False,NM,0.0001258,216
mp-1519738,BaSrCaSeO6,-2.405462450234375,0.164576225749995,2.4917,False,NM,0.0,216
mp-1522463,BaSrCaSeO6,-2.547918756234375,0.022119919749995002,2.1937,False,NM,0.0,216
mp-1519955,BaSrCaWO6,-2.810965468,0.22995727899999902,3.1419,False,NM,0.0,216
mp-1521237,BaSrCaWO6,-2.99914351,0.041779237000000004,3.1999,False,NM,0.0,216
mp-1518903,BaSrCeBiO6,-2.814158461999999,0.11409847210000601,0.0,True,FM,0.2750267,216
mp-1516756,BaSrCeCrO6,-3.014313949999999,0.114381986125014,0.0,True,FM,2.0,216
mp-1522103,BaSrCeFeO6,-2.846781751,0.059628073999999004,0.0,True,FM,3.9999995,216
mp-1522393,BaSrCeHfO6,-3.631904913999999,0.07277547200000001,2.3501,False,NM,0.0,216
mp-1518458,BaSrCeNiO6,-2.635558657999999,0.085775638999995,1.190799999999999,False,NM,0.0,216
mp-1518087,BaSrCeSbO6,-2.961580453,0.11535481922916802,0.0,True,FM,0.9795442,216
mp-1517991,BaSrCeSnO6,-3.084218546499999,0.038627201374996006,2.2351,False,NM,0.0,216
mp-1522329,BaSrCeTiO6,-3.504452654333333,0.069433204499993,2.1429,False,NM,0.0,216
mp-1521732,BaSrCeVO6,-3.154361858,0.11592864294818601,0.0,True,FM,1.0,216
mp-1517905,BaSrCeWO6,-3.000784466,0.16309746775000603,0.0,True,FM,2.0,216
mp-1521115,BaSrCeZrO6,-3.552107972999999,0.07883543299999801,2.403299999999999,False,NM,0.0,216
mp-1227676,BaSrCoWO6,-2.5756755680000003,0.015030809999998002,0.0,True,FM,2.9998503,216
mp-1517386,BaSrCrBiO6,-2.336163041,0.12002846495001801,0.14200000000000002,True,FM,3.0000002,216
mp-1516623,BaSrCrSnO6,-2.517431947499999,0.11648512218751302,0.0,True,FM,1.9999999,216
mp-1519172,BaSrCuBiO6,-1.951439792,0.05908134230624901,0.0,False,NM,5.799999999999999e-06,216
mp-1516726,BaSrDyBiO6,-2.789202897166666,0.052753261999999,1.855999999999999,False,NM,0.0,216
mp-1522044,BaSrDyMnO6,-2.834024941959771,0.064595577500003,0.0,True,FiM,4.0000004,216
mp-1518304,BaSrDyNbO6,-3.430369590166666,0.032065027749998004,2.876299999999999,False,NM,0.0,216
mp-1519060,BaSrDySbO6,-3.072949129166666,0.028286596750000004,3.471,False,NM,0.0,216
mp-1520831,BaSrDySeO6,-2.663002070401041,0.17975890587499202,0.0,True,FM,0.480068899999999,216
mp-1516351,BaSrDyVO6,-3.162198261166666,0.108669333500017,1.6306999999999992,False,NM,0.0,216
mp-1522372,BaSrDyWO6,-3.056912035166667,0.09555181412499801,0.0,True,FM,1.0,216
mp-1183344,BaSrEu2,0.062391117499997005,0.063545647499998,0.0,True,FM,14.9098401,225
mp-1522406,BaSrEuBiO6,-2.547237808500001,0.08551156911112401,0.0,True,FM,6.0,216
mp-1520342,BaSrEuCrO6,-2.6562658085,0.22438273165624703,0.0,True,FM,6.9999999,216
mp-1516635,BaSrEuNbO6,-3.1722598675,0.142485896333326,0.0,True,FM,5.9999999,216
mp-1519387,BaSrEuSbO6,-2.821985880499999,0.07753646900000001,0.0,True,FM,5.9999999,216
mp-1521371,BaSrEuSeO6,-2.440839165734376,0.261953504874997,0.0,True,FM,6.9997717999999995,216
mp-1518831,BaSrEuVO6,-2.9134525005,0.217446788500014,0.0,True,FM,6.0000001,216
mp-1518601,BaSrEuWO6,-2.9171231305000003,0.095372413125014,0.0041999999999990005,True,FM,7.0,216
mp-1520810,BaSrEuWO6,-2.8595784695,0.152917074125014,0.8266999999999991,True,FM,6.9999999,216
mp-1522159,BaSrFeBiO6,-2.209131879,0.019073074999901,0.08370000000000001,True,FM,5.0,216
mp-1521803,BaSrGaBiO6,-2.32152102575,0.057711957124999005,0.0,False,NM,0.0,216
mp-1518111,BaSrGdBiO6,-2.75153632,0.060379217374999,1.6993,True,FM,6.9999998,216
mp-1516227,BaSrGdCrO6,-2.840738962999999,0.152469385906247,0.0,True,FM,7.9999999,216
mp-1522933,BaSrGdNbO6,-3.385554847,0.045852737875,2.6155,True,FM,7.0000002,216
mp-1519521,BaSrGdVO6,-3.121279716000001,0.12217938175001901,1.5448,True,FM,6.9999998,216
mp-1518868,BaSrHfNbO6,-3.441295514,0.054264228499999005,0.0,False,NM,0.063026699999999,216
mp-1520657,BaSrHfSnO6,-3.2023928925,0.009643751749999001,3.7375,False,NM,0.0,216
mp-1520485,BaSrHfZrO6,-3.699963837999999,0.025838969500000003,3.3278,False,NM,0.0,216
mp-1183305,BaSrHg2,-0.511607163750004,0.016307632499998,0.0,False,NM,0.0004428,225
mp-1516558,BaSrInBiO6,-2.255041058666667,0.040144529125006004,0.0,False,NM,0.0,216
mp-1519864,BaSrInSbO6,-2.527268125666666,0.031487045499999006,0.7664000000000001,False,NM,0.0,216
mp-1516873,BaSrInWO6,-2.525219261666667,0.12449998962498302,0.0,True,FM,1.0,216
mp-1227371,BaSrLaBiO6,-2.7093165065,0.087935385,2.1236,False,NM,0.000299899999999,216
mp-40802,BaSrLaBiO6,-2.4878292545000003,0.309422637,1.873199999999999,False,NM,0.000101,216
mp-1521771,BaSrLaNbO6,-3.317794285499999,0.10464056895833201,2.9712,False,NM,0.0,216
mp-1518079,BaSrLaSbO6,-2.9852556045,0.053076412499998005,3.6013,False,NM,0.0,216
mp-1520540,BaSrLaVO6,-3.0601634955,0.178424884125017,1.723799999999999,False,NM,0.0,216
mp-1517745,BaSrLaWO6,-2.9521036505000002,0.18101309458331502,0.0,True,FM,1.0,216
mp-1227325,BaSrMgTeO6,-2.682208127166666,0.007189313666666,0.0,False,NM,1.8800000000000003e-05,216
mp-1227368,BaSrMgWO6,-2.9574843514999998,0.011706230000005001,3.2391,False,NM,4.7100000000000006e-05,216
mp-1519441,BaSrMnWO6,-2.734499136793103,0.022930890000006,2.0186,True,FM,5.0000005,216
mp-1521163,BaSrNbBiO6,-2.77707973,0.09060572931666001,1.9496,False,NM,0.0,216
mp-1516590,BaSrNbInO6,-2.943396109666666,0.027521779750001002,3.3943,False,NM,0.0,216
mp-1520128,BaSrNbSbO6,-2.772798265000001,0.162552605124998,1.210499999999999,False,NM,0.0,216
mp-1519649,BaSrNbWO6,-2.883098155,0.081602623714289,0.8734000000000001,True,FM,2.999999899999999,216
mp-1519400,BaSrNdBiO6,-2.69392961775,0.0806247015,2.001299999999999,False,NM,0.0,216
mp-1519085,BaSrNdCrO6,-2.767317639749998,0.19742459653124603,0.0,True,FM,0.999999899999999,216
mp-1517104,BaSrNdFeO6,-2.59401192575,0.093606345708323,0.14369999999999902,True,FM,2.9999995,216
mp-1522863,BaSrNdMnO6,-2.7287399365431053,0.11400597337499802,0.0,True,FiM,1.9999993999999992,216
mp-1522306,BaSrNdNbO6,-3.31678432675,0.08205513320833101,2.8698,False,NM,0.0,216
mp-1521937,BaSrNdSbO6,-2.97549019775,0.032045350499999,3.5072,False,NM,0.0,216
mp-1516222,BaSrNdVO6,-3.054318301750001,0.160674683374983,1.640299999999999,False,NM,0.0,216
mp-1523196,BaSrNdWO6,-2.9513101057499993,0.150338729416667,0.0,True,FM,1.0,216
mp-1517390,BaSrNiBiO6,-1.950728882,0.092558260149997,0.0,True,FM,1.0000015,216
mp-1227411,BaSrNiWO6,-2.568518454999998,0.012065881249999001,3.3716,True,AFM,0.0,216
mp-1518975,BaSrPrBiO6,-2.670868771166667,0.085753368749999,2.0229,False,NM,0.0,216
mp-1522711,BaSrPrCoO6,-2.430494082166666,0.163986738937509,0.0,True,FM,1.999999799999999,216
mp-1522560,BaSrPrHfO6,-3.296028624166666,0.1691501141875,0.0,False,NM,1.0000001,216
mp-1519420,BaSrPrNbO6,-3.290267527166667,0.09550268977083201,2.8679,False,NM,0.0,216
mp-1520375,BaSrPrNiO6,-2.329900621166666,0.15066243043750302,0.0,True,FM,0.999999899999999,216
mp-1519458,BaSrPrSbO6,-2.951761115166667,0.037115217999999006,3.4907,False,NM,0.0,216
mp-1522571,BaSrPrSnO6,-2.751298501666666,0.131584671203124,0.0,False,NM,1.0000001,216
mp-1517173,BaSrPrTiO6,-3.1821256375,0.16256841298958602,0.0,False,NM,1.0,216
mp-1520991,BaSrPrVO6,-3.028504763166667,0.173418978937517,1.6564,False,NM,0.0,216
mp-1518245,BaSrPrWO6,-2.926283253166667,0.15828986745832302,0.0,True,FM,1.0,216