material_id,formula,formation_energy,ehull,band_gap,is_magnetic,magnetic_ordering,total_magnetization,spacegroup
mp-1520563,NdEuMnFeO6,-2.587278050043105,0.182527333499997,0.0,True,FM,14.9997362,216
mp-1521899,NdEuNiSbO6,-2.454249361249999,0.20833939075000701,0.0,True,FM,8.8231458,216
mp-1518988,NdEuZrFeO6,-3.042082952250001,0.22881010674999802,0.0,True,FM,11.896942899999999,216
mp-1516183,NdEuZrTiO6,-3.462742707583333,0.161819238999994,0.0,True,FM,6.844615,216
mp-1519886,NdEuZrVO6,-3.220145229250001,0.21047437300000701,0.0,True,FM,8.993636799999999,216
mp-1186306,NdGaAu2,-0.614731418749999,0.056849749198806004,0.0,False,NM,0.001359199999999,225
mp-1186343,NdGdHg2,-0.554571338125001,0.0,0.0,True,FM,8.4460325,225
mp-1186378,NdGdIr2,-0.710643049374994,0.0,0.0,True,FiM,6.708854,225
mp-24096,NdH2,-0.736950111666665,0.0,0.0,False,NM,4.1e-06,225
mp-1186308,NdHgAu2,-0.584546804999998,0.002329778993056,0.0,False,NM,1.7000000000000003e-05,225
mp-1220051,NdHoAl4,-0.557353330416667,0.012378455833331001,0.0,False,NM,2.8400000000000003e-05,216
mp-975933,NdHoIn2,-0.457062433958329,0.0,0.0,False,NM,4.58e-05,225
mp-1186307,NdHoMg2,-0.07337488812499801,0.001216963750001,0.0,False,NM,5.5900000000000004e-05,225
mp-1186309,NdHoTl2,-0.34619113229166604,0.0,0.0,False,NM,5.31e-05,225
mp-1186313,NdHoZn2,-0.32124987312500003,0.007584257499996001,0.0,False,NM,0.0009213,225
mp-569768,NdInAg2,-0.41640398187499605,0.0,0.0,False,NM,1.8500000000000002e-05,225
mp-568139,NdInAu2,-0.6829360585416671,0.0,0.0,False,NM,2.499999999999999e-06,225
mp-21360,NdInCu2,-0.328498426874999,0.035006743499991,0.0,False,NM,8.099999999999999e-06,225
mp-1206278,NdInCu4,-0.25045154958333404,0.011223258555588,0.0045000000000000005,False,NM,0.0,216
mp-1206218,NdInNi4,-0.313031992361109,0.0,0.0,False,NM,0.0016313999999990002,216
mp-977590,NdInPd2,-0.7247907910416641,0.010369753055556001,0.0,False,NM,1.38e-05,225
mp-1071890,NdInPt4,-0.787758675694436,0.0,0.0,False,NM,4e-07,216
mp-975537,NdInRh2,-0.5983264660416671,0.011017387291664,0.0,False,NM,7.0999999999999955e-06,225
mp-975518,NdLuIn2,-0.556492708541664,0.027750155694423004,0.0,False,NM,1.5100000000000001e-05,225
mp-975515,NdLuMg2,-0.065189018541667,0.009402833333331001,0.0,False,NM,1.58e-05,225
mp-975522,NdLuTl2,-0.314491370208339,0.012746842750001002,0.0,False,NM,5.1600000000000014e-05,225
mp-644504,NdMg2Ag,-0.101489907291665,0.09480708333333301,0.0,False,NM,6.410000000000001e-05,225
mp-1787,NdMg3,-0.10229046812499801,0.0,0.0,False,NM,1.2e-06,225
mp-866074,NdMgAg2,-0.28227156645833,0.0,0.0,False,NM,2e-07,225
mp-866064,NdMgAu2,-0.7259730481249981,0.0,0.0,False,NM,1.8e-06,225
mp-866065,NdMgCd2,-0.307852513124997,0.0,0.0,False,NM,1.1900000000000001e-05,225
mp-1071051,NdMgCu4,-0.188007068749999,0.0,0.0,False,NM,4.9000000000000005e-06,216
mp-864924,NdMgHg2,-0.460280274375001,0.0,0.0,False,NM,0.0,225
mp-11194,NdMgNi4,-0.32420300208332303,0.0,0.0,True,FiM,0.687064,216
mp-1104718,NdMgNi4H7,-0.32180630701923,0.013025245544872001,0.0,False,NM,0.1241288,216
mp-975184,NdMgTl2,-0.23885198729167,0.045765598541667,0.0,False,NM,0.0024142,225
mp-864925,NdMgZn2,-0.33861244312499905,0.0,0.0,False,NM,7e-07,225
mp-2599,NdN,-1.6327002231249992,0.0,0.0,False,NM,0.0,225
mp-1206719,NdNiBi,-0.6555433724999971,0.0,0.511899999999999,False,NM,0.0,216
mp-754545,NdO,-3.073332891249999,0.07795655999999801,0.0,False,NM,0.0007877,225
mp-754125,NdO2,-3.056718285833332,0.102939638333331,0.0,True,FM,0.9991548,225
mp-35208,NdOF,-4.102901809166666,0.054305918333332,5.2617,False,NM,0.0014255,216
mp-2823,NdP,-1.773641222738092,0.0,0.0,False,NM,7e-07,225
mp-865597,NdPbAu2,-0.613197059374996,0.0,0.0,False,NM,3.5e-06,225
mp-1186317,NdPd2Pb,-0.6424685668749971,0.010927995833334,0.0,False,NM,2.4e-06,225
mp-1748,NdS,-2.2970675451562492,0.0,0.0,False,NM,7e-07,225
mp-1586,NdSb,-1.432728883750002,0.0,0.0,False,NM,1e-07,225
mp-1453,NdSe,-2.106972128281249,0.0,0.0,False,NM,1e-07,225
mp-975049,NdSmHg2,-0.556696038124997,0.0,0.0,True,FM,0.7561897,225
mp-1186351,NdSmIn2,-0.622576301874996,0.003981402499999001,0.0,False,NM,1.3900000000000002e-05,225
mp-974583,NdSmIr2,-0.700093819089282,0.080827176607144,0.0,False,NM,5.2e-06,225
mp-1186328,NdSmMg2,-0.082475873124999,0.006677425000000001,0.0,False,NM,3.8200000000000014e-05,225
mp-1186330,NdSmTl2,-0.382829719791671,0.000589519999999,0.0,False,NM,6.09e-05,225
mp-974527,NdSmZn2,-0.32118997062499904,0.0010366849999980002,0.0,False,NM,0.000129,225
mp-864668,NdSnAu2,-0.693674060624997,0.0,0.0,False,NM,6.099999999999997e-06,225
mp-1186327,NdTa3,0.530151775625,0.530151775625,0.0,False,NM,0.0008989,225
mp-570,NdTe,-1.6618503237499982,0.0,0.0,False,NM,3.27e-05,225
mp-974782,NdTlAg2,-0.24895425354166703,0.026972744399511,0.0,False,NM,0.0006871,225
mp-864667,NdTlAu2,-0.563963890208336,0.018393936249997002,0.0,False,NM,2.8e-06,225
mp-1186338,NdTmIn2,-0.5773304543749981,0.037638892475946005,0.0,False,NM,1.17e-05,225
mp-976008,NdTmMg2,-0.06921748687500101,0.0053743649999970005,0.0,False,NM,1.3400000000000002e-05,225
mp-974708,NdTmTl2,-0.330607878541674,0.005064154,0.0,False,NM,3.9900000000000014e-05,225
mp-1186325,NdTmZn2,-0.32249539937500105,0.012021977499998001,0.0,False,NM,0.0007681999999990001,225
mp-1186379,NdYIn2,-0.613462731874999,0.0025949750000000002,0.0,False,NM,3.8900000000000004e-05,225
mp-973109,NdYIr2,-0.6553158668749991,0.075205641428571,0.0,False,NM,1.7500000000000002e-05,225
mp-1186335,NdYMg2,-0.085848994374999,0.0,0.0,False,NM,3.4200000000000005e-05,225
mp-1186336,NdYZn2,-0.32514388187499904,0.0049577199999990005,0.0,False,NM,0.012884099999999002,225
mp-974744,NdZn2Ag,-0.29059854229166504,0.024614050710785002,0.0,False,NM,0.0008052,225
mp-974770,NdZn2Cd,-0.321501334374999,0.002000062916663,0.0,False,NM,8e-06,225
mp-977576,NdZnAu2,-0.586275844374999,0.028377252678216003,0.0,False,NM,0.00043529999999900005,225
mp-111,Ne,0.0,0.0,11.6898,False,NM,0.0,225
mp-23,Ni,0.0,0.0,0.0,True,FM,0.707330999999999,225
mp-1084748,Ni(N3Cl)2,2.754390264999999,3.082223367777779,0.0,True,FM,7.9994927,225
mp-1104404,Ni(N4O3)2,2.204009729333333,2.750860346000001,0.0,False,NM,0.015515999999999001,225
mp-29724,Ni20(SnB2)3,-0.27080655758620603,0.009313329949709001,0.0,False,NM,0.0010351,225
mp-10123,Ni21(B3Sb)2,-0.23933992637931,0.0,0.0,True,FM,1.4099973000000001,225
mp-1209988,Ni21(GeB3)2,-0.259152965689656,0.0,0.0,True,FM,1.2505643,225
mp-21573,Ni21(SnB3)2,-0.28109198982758504,0.0,0.0,True,FM,1.3480374,225
mp-568562,Ni21(SnP3)2,-0.416190414753693,0.00046333942528600005,0.0,False,NM,0.00042869999999900005,225
mp-20962,Ni23B6,-0.17001765655172402,0.025791950344828,0.0,True,FiM,0.1910406,225
mp-973895,Ni3H,0.534606787812499,0.540170494999999,0.0,True,FM,0.970930899999999,225
mp-10260,Ni3Sb,-0.057386700000000006,0.069725850000001,0.0,False,NM,0.0,225
mp-11523,Ni3Sn,-0.136596254999997,0.049267277500000005,0.0,False,NM,6e-07,225
mp-1104127,NiB12,0.257092778221155,0.294408146586539,0.0,True,FM,0.0167731,225
mp-631540,NiBTe,0.7392054047569441,0.9327244878819451,0.0,False,NM,0.00020789999999900003,216
mp-631538,NiBiB,0.8649875759027781,1.026687505486108,0.0,False,NM,3.6200000000000006e-05,216
mp-1009582,NiC,1.090464141249999,1.090464141249999,0.0,False,NM,0.0010152,225
mp-1021674,NiCl,-0.185373958749999,0.5522505224999991,0.0,True,FM,0.9999197,225
mp-24719,NiH,-0.011127414374999001,0.0,0.0,False,NM,2.499999999999999e-06,225
mp-1009488,NiN,0.472471271666666,0.472471271666666,0.0,False,NM,0.004633099999999,225
mp-13116,NiN,0.292849061666666,0.292849061666666,0.0,False,NM,0.0116543,216
mp-19009,NiO,-1.218085299999999,0.0,2.300899999999999,True,FM,2.0000001,225
mp-20720,NiPb2(NO2)6,0.9592772866666661,1.928501467166667,0.0,False,NM,0.0213725,225
mp-1206631,NiPb2WO6,-1.731523378999999,0.038572573906249005,2.7937000000000003,True,AFM,0.0,225
mp-1210015,NiPt(CN)6,0.239697965714285,0.253285954999997,1.4603000000000002,True,FM,2.0003001,225
mp-631488,NiRuBr2,0.53241105,1.096171385,0.0,False,NM,6.900000000000002e-05,225
mp-849053,NiS2,-0.124195494999999,0.46733104333333403,0.0,True,FM,0.5714737,225
mp-11519,NiSnRh2,-0.25160581124999803,0.020375088749999,0.0,True,FM,1.0094226,225
mp-1186194,Np3B,0.22853383031250002,0.44637181828124906,0.0,True,FM,0.812593799999999,225
mp-977325,Np3Be,0.24118245468749802,0.258419146298077,0.0,False,NM,0.0036975,225
mp-1186160,Np3Cu,0.315725108437504,0.315725108437504,0.0,True,FiM,1.6766227,225
mp-2186,NpAs,-1.3150603206250011,0.0,0.0,True,FM,3.880470899999999,225
mp-864613,NpAu3,-0.443336927187495,0.0,0.0,True,FM,3.9232369,225
mp-1103809,NpB12,-0.265630878365385,0.0,0.0,True,FM,3.5665569,225
mp-22912,NpBi,0.088829875624995,0.088829875624995,0.0,True,FM,4.0020063,225
mp-2546,NpC,0.171593686874999,0.171593686874999,0.0,True,FM,2.8974629,225
mp-977422,NpCdAu2,-0.5178324696874981,0.0,0.0,True,FM,4.3634919,225
mp-864787,NpCdPt2,-0.228259987187499,0.19145403125000002,0.0,False,NM,0.0027937,225
mp-864608,NpGaRh2,-0.29150836156249904,0.16175537520833402,0.0,False,NM,0.011936599999999001,225
mp-24285,NpH2,-0.523193232083334,0.0,0.0,True,FM,3.5853205,225
mp-977402,NpInRh2,-0.44766913468748704,0.14239898150000102,0.0,False,NM,0.0013853,225
mp-1009494,NpN,-1.399297468749999,0.22926009999999702,0.0,True,FM,3.9818491,216
mp-2596,NpN,-1.6285575687499971,0.0,0.0,True,FM,3.5799649000000002,225
mp-1008833,NpN2,-1.241231328749999,0.12608368312501,0.0,True,FiM,1.0000013,225
mp-6927,NpO,-2.544315116875001,0.1565880178125,0.0,True,FM,3.4551561,225
mp-2616,NpO2,-3.601204179583336,0.0,0.0,True,FM,2.999999899999999,225
mp-10108,NpP,-1.429588853363093,0.0,0.0,True,FM,3.774596599999999,225
mp-10109,NpS,-1.909519385781251,0.0,0.0,True,FM,4.1273944,225
mp-20969,NpSb,-0.31611448937499903,0.0,0.0,True,FM,3.9696823,225
mp-1186321,NpSbPd2,-0.1513913546875,0.28479481031249804,0.0,True,FM,0.0966677,225
mp-1186344,NpScRu2,-0.11716903093750002,0.17537582031249702,0.0,False,NM,0.004042299999999,225
mp-1186342,NpScTc2,-0.094568220937501,0.1342074546875,0.0,True,FiM,2.6024773,225
mp-627,NpSe,-1.299778385546872,0.0,0.0,True,FM,4.2950104,225
mp-977411,NpSnAu2,-0.5747862971874931,0.0,0.0,True,FM,3.9249644,225
mp-864834,NpSnRh2,-0.217914920937499,0.126818939583333,0.0,False,NM,0.0020837,225
mp-807,NpTe,-0.7909411877083341,0.044479182656255,0.0,True,FM,4.5882661,225
mp-8643,Os,0.16492783999999702,0.16492783999999702,0.0,False,NM,2e-07,225
mp-1207216,Os(NCl3)2,0.6934606333333241,0.980396704444448,0.0,True,FiM,4.0064262,225
mp-1186356,Os3Cl,1.2617157431250021,1.423117283125002,0.0,False,NM,6.610000000000002e-05,225
mp-1186354,Os3F,0.417278763187503,0.9675753723124951,0.0,False,NM,0.0006037999999990001,225
mp-1186352,Os3O,0.6567916062499991,1.1605669325,0.0,False,NM,0.0002578,225
mp-1009539,OsC,1.391818666249999,1.391818666249999,0.0,False,NM,0.009325199999999001,225
mp-1009540,OsC,0.716975826249999,0.716975826249999,0.1453,False,NM,0.0014257,216
mp-1009495,OsN,1.378461817499999,1.378461817499999,0.0,False,NM,0.0377309,225
mp-1009496,OsN,0.49186207750000205,0.49186207750000205,0.0,False,NM,0.0010833,216
mp-1008826,OsN2,0.803069813333332,0.80306981333333,0.0,False,NM,0.0006647,225
mp-1186383,OsPb3,0.8588683125000001,0.8588683125000001,0.0,False,NM,0.0012051,225
mp-631399,OsPtCl2,1.08321863916667,1.439516646666668,0.0,False,NM,4e-07,216
mp-674158,P,3.517774656666667,3.517774656666667,2.0034,True,FM,3.0,225
mp-1186360,P3H,0.7781457107514861,0.782460803749999,0.0,False,NM,0.0009408999999990001,225
mp-1186361,P3W,0.49031659767857105,0.776444061666666,0.0,False,NM,0.0016875999999990002,225
mp-2082,PIr2,-0.47138817932539706,0.0,0.0,False,NM,3e-07,225
mp-631533,PPbW,1.884796629841261,2.127636005833331,0.0,True,FM,2.35071,216
mp-2732,PRh2,-0.825363619325396,0.0,0.0,False,NM,4e-07,225
mp-10740,Pa,0.029632520000006,0.029632520000006,0.0,False,NM,2.6800000000000004e-05,225
mp-1186372,Pa2BiTe,-0.532560661249995,0.0,0.0,True,FM,4.6662908,225
mp-973843,Pa2SbTe,-0.627868816666667,0.0,0.0,True,FM,4.53161,225
mp-1186399,Pa3Re,0.186239211249997,0.186239211249997,0.0,False,NM,0.016184999999999002,225
mp-973853,Pa3Tc,0.123533861249995,0.123533861249995,0.0,False,NM,0.0171126,225
mp-977444,PaAgAu2,-0.316874893749997,0.13700548125,0.0,True,FM,0.916331,225
mp-864791,PaAgTe2,-0.444656681250002,0.0,0.0,True,FM,1.4084907,225
mp-864780,PaAlAu2,-0.458836192499994,0.11068599687496301,0.0,False,NM,8.680000000000002e-05,225
mp-973910,PaAlCu2,-0.153893172499998,0.093458180714289,0.0,False,NM,9.3e-06,225
mp-1186389,PaAlFe2,-0.21299190749999802,0.0,0.0,True,FiM,3.927423,225
mp-865149,PaAlRu2,-0.604847784999996,0.0,0.0,False,NM,0.0033453,225
mp-865148,PaAlTc2,-0.38721710749999905,0.0,0.0,False,NM,0.0001226,225
mp-1186390,PaAlV2,-0.142235083749991,0.016425026250001,0.0,False,NM,0.0003945,225
mp-15694,PaAs,-1.208501476249992,0.0,0.0,False,NM,0.0001163,225
mp-865858,PaAu3,-0.42764949499999705,0.040538747499994005,0.0,True,FM,1.0053506,225
mp-1186394,PaBiAu2,-0.29294192625000104,0.16093844874999502,0.0,False,NM,0.022173,225
mp-567580,PaC,-0.5916299299999961,0.0,0.0,False,NM,7.299999999999999e-06,225
mp-861973,PaCdAu2,-0.41065134750000004,0.043229027499997005,0.0,True,FM,0.740955599999999,225
mp-861974,PaCdPt2,-0.719785839999997,0.0,0.0,False,NM,0.0009333999999990001,225
mp-864717,PaCu2Sn,-0.11853315749999901,0.0,0.0,False,NM,0.00013979999999900002,225
mp-864716,PaGaAu2,-0.42421715749999506,0.070497348571429,0.0,False,NM,7e-07,225
mp-861971,PaGaCu2,-0.13784459500000001,0.053053221249999005,0.0,False,NM,5.3300000000000015e-05,225
mp-861976,PaGaFe2,-0.16872578937500102,0.0,0.0,True,FiM,4.00458,225
mp-861977,PaGaNi2,-0.36705514499999803,0.012214362499996,0.0,False,NM,4.5700000000000006e-05,225
mp-1186396,PaGaPt2,-0.791950396875,0.012275087499996002,0.0,False,NM,0.0021367,225
mp-861980,PaGaTc2,-0.279342979999995,0.0,0.0,False,NM,0.0003295,225
mp-862817,PaHgAu2,-0.353551554375002,0.10032882062499401,0.0,True,FM,0.818811299999999,225
mp-1186414,PaHgTe2,-0.5179221568750021,0.0,0.0,True,FM,1.0000837,225
mp-862819,PaInAu2,-0.48335766749999404,0.009844797857141001,0.0,False,NM,0.001209499999999,225
mp-862823,PaInCu2,-0.102407864999996,0.0,0.0,False,NM,0.0003143,225
mp-1186470,PaInNi2,-0.290589442499996,0.054453026785715,0.0,False,NM,0.0008761999999990001,225
mp-1186455,PaInPd2,-0.5751662874999961,0.029500237499995002,0.0,True,FM,0.793309199999999,225
mp-862824,PaInPt2,-0.87195052749999,0.056646594583341,0.0,False,NM,0.0019209,225
mp-1186458,PaInRu2,-0.43602543999999405,0.0,0.0,False,NM,2.5600000000000002e-05,225
mp-1186492,PaInTc2,-0.12720760249999302,0.0,0.0,False,NM,0.024339899999999002,225
mp-861991,PaMn2Al,-0.154147683965517,0.0,0.0,True,FiM,5.1591406,225
mp-1186426,PaMn2Ga,-0.12250453724137601,0.129360279374996,0.0,True,FiM,5.3489053,225
mp-1009545,PaN,-1.827745474374992,0.0,0.0,False,NM,2.4500000000000003e-05,225
mp-1006056,PaNi2Ge,-0.367469232499999,0.128969903382355,0.0,False,NM,0.0006159,225
mp-861992,PaNi2Sb,-0.39998563749999505,0.037414378500010004,0.0,False,NM,4.9000000000000005e-06,225
mp-861995,PaNi2Sn,-0.391738926249998,0.0,0.0,False,NM,3.9e-05,225
mp-2735,PaO,-2.7596726025000002,0.25729369499999905,0.0,True,FM,0.6044813,225
mp-2364,PaO2,-4.02262173,0.0,0.0,False,NM,0.0020877,225
mp-862813,PaPbAu2,-0.33131227749999603,0.12256809750000001,0.0,True,FM,0.9437745,225
mp-1077534,PaPt5,-0.830400936666658,0.0,0.0,False,NM,4.22e-05,216
mp-862814,PaSiTc2,-0.33196286874999703,0.18636756958333903,0.0,False,NM,0.0001251,225
mp-862821,PaSnAu2,-0.42875350250000105,0.025126872499996,0.0,True,FM,0.574458399999999,225
mp-862822,PaSnPd2,-0.625523767499998,0.0,0.0,True,FM,0.779850199999999,225
mp-1186407,PaSnRu2,-0.38155053999999905,0.0,0.0,True,FM,1.0232649,225
mp-1186412,PaTc2Ge,-0.25140460875000004,0.0,0.0,False,NM,0.002977199999999,225
mp-1186406,PaTc2Sn,-0.24243600749999603,0.0,0.0,False,NM,0.00019439999999900002,225
mp-862829,PaTe2Au,-0.48694153499999904,0.098860002477685,0.0,False,NM,6e-07,225
mp-1186417,PaTe2Pd,-0.5864961824871241,0.23666025749999803,0.0,True,FM,0.777983099999999,225
mp-1186418,PaTi3,0.05569938500000401,0.05569938500000401,0.0,False,NM,3.41e-05,225
mp-862831,PaTiTc2,-0.361548776666666,0.0,0.0,False,NM,0.0035516999999990004,225
mp-862830,PaTlAu2,-0.312420432499997,0.14145994249999902,0.0,False,NM,0.0058839,225
mp-862833,PaZnAu2,-0.367683706250005,0.104140740043099,0.0,False,NM,0.0187103,225
mp-1186422,PaZnNi2,-0.260000284999998,0.032372067083333005,0.0,False,NM,0.0056045,225
mp-862835,PaZnPt2,-0.7720785374999971,0.0,0.0,False,NM,0.000159,225
mp-1186419,PaZnRh2,-0.650043638749998,0.136611341071429,0.0,False,NM,0.0101944,225
mp-862843,PaZnRu2,-0.383159449999999,0.0,0.0,False,NM,0.000279,225
mp-1186430,PaZnTc2,-0.090533839999999,0.0,0.0,False,NM,0.2285556,225
mp-20483,Pb,0.0,0.0,0.0,False,NM,3e-07,225
mp-722281,Pb(NCl3)2,0.819587031944447,1.255833052777783,0.0,True,FiM,4.00016,225
mp-1186448,Pb3O,0.0020601162500010002,0.7370462847656261,0.0,False,NM,2.32e-05,225
mp-982246,PbAu3,0.028900653437503,0.08164563500000101,0.0,False,NM,0.0001304,225
mp-315,PbF2,-2.544010303333332,0.0,4.3938,False,NM,0.0,225
mp-20158,PbO2,-1.193014243333332,0.106632788333333,0.0,False,NM,8.970000000000001e-05,225
mp-21276,PbS,-0.7840503037499971,0.0,0.46669999999999906,False,NM,0.0,225
mp-2201,PbSe,-0.6725727545312451,0.0,0.425699999999999,False,NM,0.0,225
mp-2,Pd,0.0,0.0,0.0,True,FM,0.3851734,225
mp-1205982,Pd(Br3N)2,1.216996254444444,1.44858669111111,0.0,False,NM,0.0008964999999990001,225
mp-1078506,Pd(NCl3)2,0.864184363333336,1.059740246111111,0.0,True,FiM,1.762305,225
mp-1186424,Pd3F,-0.074126364895835,0.443059465416666,0.0,True,FM,1.763566,225
mp-999296,Pd3N,1.022488078750001,1.022488078750001,0.0,False,NM,0.0008326,225
mp-1186431,Pd3S,0.070075163046876,0.33215706,0.0,False,NM,0.0020964,225
mp-1009533,PdC,1.48726345625,1.48726345625,0.0,False,NM,0.00013079999999900002,225
mp-1009538,PdC,1.216097716250001,1.216097716250001,0.0,False,NM,0.0006533,216
mp-1009548,PdN,0.9524291725,0.9524291725,0.0,False,NM,0.0009756999999990001,225
mp-973835,PdN,0.8724563125000001,0.8724563125000001,0.0,False,NM,0.0016921,216
mp-1008820,PdN2,1.417240296666664,1.417240296666664,0.0,False,NM,0.001032,225
mp-10728,PdO,-0.34054141249999903,0.44928499250000004,0.0,False,NM,6e-07,225
mp-752735,PdO2,-0.497041713333332,0.230485021666667,0.0,False,NM,0.000391299999999,225
mp-1186429,Pm,0.016863862499999,0.016863862499999,0.0,False,NM,2.8e-06,225
mp-1186438,Pm2AgAu,-0.5861513324999941,0.0,0.0,False,NM,1.5000000000000002e-05,225
mp-862979,Pm2AgGe,-0.581500837499998,0.0,0.0,False,NM,0.003101,225
mp-1186433,Pm2AgHg,-0.43048572437500304,0.0,0.0,False,NM,0.0004474,225
mp-862977,Pm2AgIr,-0.558517127500003,0.0,0.0,False,NM,1.0300000000000001e-05,225
mp-1186439,Pm2AgOs,-0.191615904999999,0.0,0.0,False,NM,3.7800000000000004e-05,225
mp-862989,Pm2AgPt,-0.7502617999999971,0.0,0.0,False,NM,3.05e-05,225
mp-982929,Pm2AgRh,-0.515014192499997,0.0,0.0,False,NM,8e-06,225
mp-862991,Pm2AgRu,-0.25973921374999803,0.0,0.0,False,NM,1e-07,225
mp-862990,Pm2AgSn,-0.597936879999998,0.0,0.0,True,FM,1.0327039,225
mp-1186432,Pm2AlCd,-0.39999437874999805,0.0,0.0,False,NM,2.1700000000000002e-05,225
mp-1186435,Pm2AlGa,-0.514243256250001,0.0,0.0,False,NM,1e-07,225
mp-1186585,Pm2AlIn,-0.5071065262499981,0.0,0.0,False,NM,7.499999999999998e-06,225
mp-1186441,Pm2AlZn,-0.38399962749999905,0.0,0.0,False,NM,4.5e-05,225
mp-1186434,Pm2CdGa,-0.5126855462500011,0.0,0.0,False,NM,5.9500000000000016e-05,225
mp-862994,Pm2CdGe,-0.5589509987499991,0.0,0.0,False,NM,3.8200000000000014e-05,225
mp-1186436,Pm2CdHg,-0.461945700625001,0.0,0.0,True,FM,1.0158718,225
mp-862996,Pm2CdIn,-0.5265062512500011,0.0,0.0,False,NM,0.0003698,225
mp-1186480,Pm2CdPb,-0.535074441250003,0.0,0.0,False,NM,8.76e-05,225
mp-863654,Pm2CdSi,-0.448319074999997,0.0,0.0,False,NM,2.2e-06,225
mp-863655,Pm2CdSn,-0.605819128749999,0.0,0.0,False,NM,8.77e-05,225
mp-1186451,Pm2CoCu,-0.062656988749999,0.0,0.0,True,FiM,0.3195561,225
mp-863660,Pm2CoIr,-0.41609804375000004,0.0,0.0,True,FiM,1.0285196,225
mp-1186456,Pm2CoNi,-0.096877411249998,0.0,0.0,True,FiM,1.2895406,225
mp-1186457,Pm2CoRu,-0.0964875475,0.0,0.0,True,FiM,1.236321,225