material_id,formula,formation_energy,ehull,band_gap,is_magnetic_x,magnetic_ordering,total_magnetization_x,spacegroup,heusler_type,is_magnetic_y,total_magnetization_y
mp-1184130,Er2TcAg,-0.161452126666665,0.0941347128125,0.0,False,NM,1.4700000000000002e-05,225,full,False,1.4700000000000002e-05
mp-863667,Er2TlAg,-0.335633251250001,0.0,0.0,False,NM,0.000270799999999,225,full,False,0.000270799999999
mp-861628,Er2TlCd,-0.308721125833336,0.0,0.0,True,FM,0.543041099999999,225,full,True,0.543041099999999
mp-1184101,Er2TlHg,-0.389082723958337,0.003447342499998,0.0,False,NM,0.002123899999999,225,full,False,0.002123899999999
mp-1184088,Er2TlIn,-0.363351155000001,0.0,0.0,False,NM,8.2e-06,225,full,False,8.2e-06
mp-1184108,Er2TlZn,-0.316837043333334,0.011835085625,0.0,False,NM,0.0011516,225,full,False,0.0011516
mp-1184083,Er2ZnAg,-0.336409840416665,0.011313474999999,0.0,False,NM,1.13e-05,225,full,False,1.13e-05
mp-983908,Er2ZnAu,-0.676950140416664,0.018334206562506,0.0,False,NM,5.299999999999997e-06,225,full,False,5.299999999999997e-06
mp-983583,Er2ZnCu,-0.303155337499998,0.010586814999999,0.0,False,NM,3.6e-06,225,full,False,3.6e-06
mp-1184077,Er2ZnGa,-0.54113835041667,0.02596401453125,0.0,False,NM,0.003123,225,full,False,0.003123
mp-1184082,Er2ZnHg,-0.466456912291672,0.012107527500003,0.0,False,NM,1.3e-06,225,full,False,1.3e-06
mp-862788,Er2ZnIn,-0.469514457916666,0.033003704583332,0.0,False,NM,0.000847,225,full,False,0.000847
mp-862789,Er2ZnIr,-0.6742044650000001,0.019343443333331,0.0,False,NM,0.0,225,full,False,0.0
mp-861636,Er2ZnOs,-0.326975474999997,0.0145133148125,0.0,False,NM,1.5700000000000002e-05,225,full,False,1.5700000000000002e-05
mp-862895,Er2ZnRu,-0.402019619999996,0.0,0.0,False,NM,3e-07,225,full,False,3e-07
mp-862914,Er2ZnTc,-0.214296069999999,0.075875870312501,0.0,False,NM,0.0010628,225,full,False,0.0010628
mp-864646,ErAgHg2,-0.31478544166667,0.0,0.0,False,NM,9e-07,225,full,False,9e-07
mp-977535,ErAlAg2,-0.330594085833331,0.0,0.0,False,NM,0.0,225,full,False,0.0
mp-1206953,ErBiPd,-1.024012719444447,0.0,0.0,False,NM,1.899999999999999e-06,216,half,False,1.899999999999999e-06
mp-1206955,ErBiPd,-0.57748750277778,0.446525216666664,0.246999999999999,False,NM,0.0021435,216,half,False,1.899999999999999e-06
mp-30454,ErBiPt,-1.166693212777782,0.0,0.0,False,NM,3e-07,216,half,False,3e-07
mp-977378,ErCdAg2,-0.268889338333331,0.0,0.0,False,NM,1.18e-05,225,full,False,1.18e-05
mp-1184163,ErCdAu2,-0.663572987500001,0.0,0.0,False,NM,4.1e-06,225,full,False,4.1e-06
mp-1184161,ErCdHg2,-0.333100646249999,0.0,0.0,False,NM,3.9300000000000007e-05,225,full,False,3.9300000000000007e-05
mp-863738,ErCdPd2,-0.7462033175,0.0,0.0,False,NM,5.099999999999999e-06,225,full,False,5.099999999999999e-06
mp-1184167,ErCdPt2,-0.836436717499997,0.019687186750002,0.0,False,NM,4.1e-06,225,full,False,4.1e-06
mp-863739,ErCdRh2,-0.5866167199999971,0.0,0.0,False,NM,2.4e-06,225,full,False,2.4e-06
mp-863711,ErGaRh2,-0.8602678368749961,0.0,0.0,False,NM,5.4e-06,225,full,False,5.4e-06
mp-1184155,ErHfIr2,-0.883600587499998,0.051184872500002,0.0,False,NM,0.0044735,225,full,False,0.0044735
mp-1184159,ErHfRu2,-0.604877744999999,0.0,0.0,False,NM,3.1e-06,225,full,False,3.1e-06
mp-30340,ErInAg2,-0.351657399999997,0.0,0.0,False,NM,1.0100000000000002e-05,225,full,False,1.0100000000000002e-05
mp-30376,ErInAu2,-0.781622655833331,0.0,0.0,False,NM,9e-06,225,full,False,9e-06
mp-4552,ErInCu2,-0.38584118166667,0.023198708333332,0.0,False,NM,1.8700000000000004e-05,225,full,False,1.8700000000000004e-05
mp-11371,ErInPd2,-0.8393273691666661,0.0,0.0,False,NM,1.12e-05,225,full,False,1.12e-05
mp-1184166,ErInPt2,-1.042279470833335,0.04139165442308,0.0,False,NM,3e-06,225,full,False,3e-06
mp-977400,ErInRh2,-0.7824713066666661,0.0,0.0,False,NM,2e-07,225,full,False,2e-07
mp-1184202,ErLuCu2,-0.298483732499999,0.0,0.0,False,NM,0.0018472,225,full,False,0.0018472
mp-1184169,ErLuHg2,-0.5589149587500011,0.0,0.0,False,NM,1.3400000000000002e-05,225,full,False,1.3400000000000002e-05
mp-977551,ErLuMg2,-0.039560056666664,0.001666537500002,0.0,False,NM,3.83e-05,225,full,False,3.83e-05
mp-1184303,ErLuPd2,-0.979492949999997,0.0063775425,0.0,False,NM,1.97e-05,225,full,False,1.97e-05
mp-1184345,ErLuRh2,-0.976852509166666,0.011047467499999,0.0,False,NM,0.0002468,225,full,False,0.0002468
mp-1184363,ErLuRu2,-0.426893411666665,0.0,0.0,False,NM,9.97e-05,225,full,False,9.97e-05
mp-1184360,ErLuZn2,-0.397832844999999,0.003064054999999,0.0,False,NM,6.5e-06,225,full,False,6.5e-06
mp-1184227,ErMg2Sc,-0.028891146249998,0.010227802499999,0.0,False,NM,8.800000000000001e-05,225,full,False,8.800000000000001e-05
mp-1184233,ErMgAg2,-0.295765719583332,0.0,0.0,False,NM,6.3e-06,225,full,False,6.3e-06
mp-1184216,ErMgAu2,-0.782522481249998,0.0,0.0,False,NM,0.000168,225,full,False,0.000168
mp-863672,ErMgCd2,-0.261426138749998,0.0,0.0,False,NM,7.9e-06,225,full,False,7.9e-06
mp-863674,ErMgHg2,-0.434024992500003,0.0,0.0,False,NM,9e-06,225,full,False,9e-06
mp-1184235,ErMgPd2,-0.8274261262499981,0.001522585,0.0,False,NM,2.6e-06,225,full,False,2.6e-06
mp-1184217,ErMgRh2,-0.7482107987499921,0.0,0.0,False,NM,4.1900000000000016e-05,225,full,False,4.1900000000000016e-05
mp-1184238,ErMgTl2,-0.173430962916669,0.038896274166666,0.0,False,NM,0.007979,225,full,False,0.007979
mp-977433,ErMgZn2,-0.328422618749999,0.0,0.0,False,NM,8e-07,225,full,False,8e-07
mp-866026,ErNbOs2,-0.201735739999996,0.106868020750003,0.0,False,NM,3e-07,225,full,False,3e-07
mp-867919,ErNbRu2,-0.354396067499999,0.0,0.0,False,NM,1.6e-06,225,full,False,1.6e-06
mp-1206712,ErNiBi,-0.661394963333332,0.0,0.169999999999999,False,NM,0.0,216,half,False,0.0
mp-21272,ErNiSb,-0.9674753699999992,0.0,0.2739,False,NM,0.0,216,half,False,0.0
mp-1184323,ErPaOs2,-0.240160375000002,0.020522579374997,0.0,False,NM,0.0001015,225,full,False,0.0001015
mp-867918,ErPaRu2,-0.434225160000002,0.0,0.0,True,FM,0.101588299999999,225,full,True,0.101588299999999
mp-863734,ErPaTc2,-0.21812609083333,0.002269517499989,0.0,False,NM,3.4900000000000015e-05,225,full,False,3.4900000000000015e-05
mp-30377,ErPbAu,-0.657796673333332,0.0,0.0,False,NM,7e-07,216,half,False,7e-07
mp-1206593,ErPd2Pb,-0.708994764999998,0.016733641666666,0.0,False,NM,1e-07,225,full,False,1e-07
mp-863735,ErRh2Pb,-0.5773328749999981,0.0,0.0,True,FM,0.8871139,225,full,True,0.8871139
mp-11836,ErSbPd,-1.234696921111113,0.0,0.209299999999999,False,NM,0.0,216,half,False,0.0
mp-16329,ErSbPt,-1.377276774444444,0.0,0.0,False,NM,0.0,216,half,False,0.0
mp-1184244,ErSbRh2,-0.7447283649999981,0.057793519375,0.0,False,NM,0.0018919,225,full,False,0.0018919
mp-1184223,ErScRu2,-0.45436001875,0.004754489687499,0.0,False,NM,5e-07,225,full,False,5e-07
mp-1184239,ErScZn2,-0.359154388749999,0.008757707499999,0.0,False,NM,1.21e-05,225,full,False,1.21e-05
mp-5640,ErSnAu,-0.8443013916666671,0.0,0.006099999999999,False,NM,5e-07,216,half,False,5e-07
mp-5850,ErSnPd2,-0.891888471249997,0.0,0.0,False,NM,5.5e-06,225,full,False,5.5e-06
mp-862931,ErSnRh2,-0.8253240662500001,0.0,0.0,True,FM,0.7563726,225,full,True,0.7563726
mp-866285,ErSnRu2,-0.393887713749999,0.0,0.0,False,NM,0.000690499999999,225,full,False,0.000690499999999
mp-866299,ErTaOs2,-0.280121181833331,0.050062084208335,0.0,False,NM,0.0,225,full,False,0.0
mp-863679,ErTaRu2,-0.425428669333328,0.0,0.0,False,NM,2e-07,225,full,False,2e-07
mp-1184267,ErTc2W,-0.032315990833339,0.154646820624996,0.0,False,NM,0.0006336,225,full,False,0.0006336
mp-1184246,ErThRu2,-0.463069272499998,0.0,0.0,False,NM,0.0001718,225,full,False,0.0001718
mp-863681,ErThTc2,-0.121149699822282,0.102874855625003,0.0,False,NM,0.000468599999999,225,full,False,0.000468599999999
mp-1184208,ErTlRh2,-0.566931473333333,0.002206542916667,0.0,False,NM,7.9e-06,225,full,False,7.9e-06
mp-1184253,ErTmAg2,-0.335663275833334,0.006416204999998,0.0,False,NM,2.07e-05,225,full,False,2.07e-05
mp-1184284,ErTmCd2,-0.288041309999999,0.0070569875,0.0,False,NM,4.1e-06,225,full,False,4.1e-06
mp-1184262,ErTmCu2,-0.290866678333333,0.001818709999998,0.0,False,NM,1.6e-06,225,full,False,1.6e-06
mp-1184249,ErTmHg2,-0.567937122083328,0.0,0.0,False,NM,4e-07,225,full,False,4e-07
mp-1184271,ErTmIn2,-0.548965890833333,0.010589151250002,0.0,False,NM,2.8900000000000005e-05,225,full,False,2.8900000000000005e-05
mp-1184240,ErTmMg2,-0.043739617500002,0.002143417499997,0.0,False,NM,1.0800000000000002e-05,225,full,False,1.0800000000000002e-05
mp-1184248,ErTmPd2,-0.9679020358333332,0.003790909999999,0.0,False,NM,3.1e-06,225,full,False,3.1e-06
mp-1184242,ErTmRu2,-0.402363897500001,0.0,0.0,False,NM,0.0001003,225,full,False,0.0001003
mp-1184245,ErTmTl2,-0.294737454166669,0.0,0.0,False,NM,8.970000000000001e-05,225,full,False,8.970000000000001e-05
mp-1184251,ErTmZn2,-0.393820788333332,0.005236987499998,0.0,False,NM,0.0008221,225,full,False,0.0008221
mp-1184222,ErZnPd2,-0.767109732499998,0.017268314166665,0.0,False,NM,0.000587699999999,225,full,False,0.000587699999999
mp-977538,ErZnRh2,-0.6963999724999981,0.0,0.0,False,NM,7e-07,225,full,False,7e-07
mp-1184237,ErZrRu2,-0.543503887499998,0.0,0.0,False,NM,8e-07,225,full,False,8e-07
mp-1183891,Eu2AgAu,-0.5343744529166711,0.018999938124999,0.0,True,FM,14.8140726,225,full,True,14.8140726
mp-1183883,Eu2AgBi,-0.751411594166668,0.036349747083335,0.0,True,FM,14.0028582,225,full,True,14.0028582
mp-1183896,Eu2AgGe,-0.554516290312502,0.032780057187501,0.0,True,FM,13.7159599,225,full,True,13.7159599
mp-1183893,Eu2AgHg,-0.438785538125003,0.0222313075,0.0,True,FM,14.4572361,225,full,True,14.4572361
mp-1184199,Eu2AgPb,-0.444984052916668,0.0,0.0,True,FM,13.7945779,225,full,True,13.7945779
mp-1183902,Eu2AgPd,-0.482664801666672,0.027295416458329,0.0,True,FM,14.276809,225,full,True,14.276809
mp-1183904,Eu2AgPt,-0.6038651929166681,0.046861390625002,0.0,True,FM,14.1938073,225,full,True,14.1938073
mp-1183909,Eu2AgRh,-0.331835102125001,0.037133641749999,0.0,True,FiM,13.9907177,225,full,True,13.9907177
mp-1183942,Eu2AgSb,-0.7561822879166691,0.03746616982143,0.0,True,FM,13.9946797,225,full,True,13.9946797
mp-1183890,Eu2AgSn,-0.5876666862500031,0.012993318125001,0.0,True,FM,13.8081242,225,full,True,13.8081242
mp-1183880,Eu2AsAu,-0.994488656875002,0.041879585833331,0.0,True,FM,14.0023971,225,full,True,14.0023971
mp-1183887,Eu2BiAu,-0.8428153075000051,0.000777110416664,0.0,True,FM,13.9998499,225,full,True,13.9998499
mp-1183877,Eu2CdGa,-0.434029027499999,0.026058021875002,0.0,True,FM,14.2003621,225,full,True,14.2003621
mp-1183885,Eu2CdGe,-0.588062636562501,0.026755790312503,0.0,True,FM,14.0046723,225,full,True,14.0046723
mp-1183915,Eu2CdHg,-0.485680344375005,0.009982802499997,0.0,True,FM,14.3703406,225,full,True,14.3703406
mp-1183962,Eu2CdPb,-0.483101227500001,0.0,0.0,True,FM,14.105118,225,full,True,14.105118
mp-1183888,Eu2CdSn,-0.5492283262500041,0.0,0.0,True,FM,14.1228856,225,full,True,14.1228856
mp-1183898,Eu2CuIr,-0.221375352500002,0.059632904374996,0.0,True,FiM,13.8163366,225,full,True,13.8163366
mp-1183906,Eu2CuRh,-0.229817332500001,0.045792965425,0.0,True,FiM,13.8929611,225,full,True,13.8929611
mp-1183895,Eu2GaHg,-0.5533836668750071,0.023563906874997,0.0,True,FM,14.3423379,225,full,True,14.3423379
mp-1183879,Eu2HgBi,-0.8534712054166741,0.028017686041664,0.0,True,FM,14.7744249,225,full,True,14.7744249
mp-867299,Eu2HgGe,-0.6929614193750021,0.017306600000004,0.0,True,FM,14.0034058,225,full,True,14.0034058
mp-1183882,Eu2HgSb,-0.8183727956250041,0.034932250416677,0.0,True,FM,14.9854451,225,full,True,14.9854451
mp-1184056,Eu2InHg,-0.490552534791671,0.0,0.0,True,FM,14.317811,225,full,True,14.317811
mp-1183886,Eu2MgCd,-0.181061806250004,0.010500967812497,0.0,True,FM,14.5707713,225,full,True,14.5707713
mp-1184025,Eu2MgIn,-0.273666587916668,0.0,0.0,True,FM,14.1275624,225,full,True,14.1275624
mp-1183894,Eu2MgSn,-0.435550752500001,0.033846496458332,0.0,True,FM,14.1602804,225,full,True,14.1602804
mp-1183884,Eu2MgTl,-0.251802847083338,0.0,0.0,True,FM,14.212694,225,full,True,14.212694
mp-1184039,Eu2PdAu,-0.721978855000002,0.02330413125,0.0,True,FM,14.178131,225,full,True,14.178131
mp-867502,Eu2PtAu,-0.840425847500002,0.017715873645833,0.0,True,FM,14.1625038,225,full,True,14.1625038
mp-1184372,Eu2SbAu,-0.9396289225,0.020335688295454,0.0,True,FM,13.9998426,225,full,True,13.9998426
mp-867477,Eu2SnHg,-0.757291811875006,0.0,0.0,True,AFM,5.6e-06,225,full,True,5.6e-06
mp-1184281,Eu2TlCd,-0.463020557499994,0.0,0.0,True,FM,14.2755967,225,full,True,14.2755967
mp-1184263,Eu2TlHg,-0.573754386875002,0.0,0.0,True,FM,14.3586689,225,full,True,14.3586689
mp-1184473,Eu2TlIn,-0.404201747500005,0.0,0.0,True,FM,14.1369829,225,full,True,14.1369829
mp-1184286,Eu2TlSn,-0.6481772074999981,0.001868195000007,0.0,True,FM,14.4603059,225,full,True,14.4603059
mp-1184322,Eu2TlZn,-0.333306868333339,0.0,0.0,True,FM,14.2880592,225,full,True,14.2880592
mp-1184356,Eu2ZnAg,-0.267360897916669,0.012172680625001,0.0,True,FM,14.5164585,225,full,True,14.5164585
mp-1184288,Eu2ZnCd,-0.278945929999999,0.009254202500002,0.0,True,FM,14.3204724,225,full,True,14.3204724
mp-1184310,Eu2ZnGa,-0.364108546875003,0.0,0.0,True,FM,14.1003059,225,full,True,14.1003059
mp-1184247,Eu2ZnHg,-0.393471513125003,0.003153160000001,0.0,True,FM,14.2986749,225,full,True,14.2986749
mp-1184464,Eu2ZnIn,-0.349925461666668,0.0,0.0,True,FM,14.2418104,225,full,True,14.2418104
mp-1184277,Eu2ZnIr,-0.297077107500003,0.048384179999995,0.0,True,FiM,14.0233341,225,full,True,14.0233341
mp-1184339,Eu2ZnRh,-0.312781992500002,0.025140962874999,0.0,True,FM,14.1319807,225,full,True,14.1319807
mp-1184291,Eu2ZnSn,-0.512197548750003,0.006527789791664,0.0,True,FM,14.0856908,225,full,True,14.0856908
mp-1184463,EuAg2Pb,-0.260701514583333,0.00809309277778,0.0,True,FM,6.9961791,225,full,True,6.9961791
mp-865192,EuAg2Sn,-0.35678689625,0.049717458750002,0.0,True,FM,6.9422387,225,full,True,6.9422387
mp-865013,EuAgAu2,-0.477775561666668,0.080017365833333,0.0,True,FM,6.863336,225,full,True,6.863336
mp-1184389,EuAgHg2,-0.378902198611115,0.027776018888886,0.0,True,FM,7.1865409,225,full,True,7.1865409
mp-1184261,EuBiAu2,-0.556531636250003,0.006355221250004,0.0,True,FM,6.6981437,225,full,True,6.6981437
mp-1184306,EuBiPd2,-0.594776082499997,0.075098026874975,0.0,True,FM,6.8575784,225,full,True,6.8575784
mp-1184455,EuCd2In,-0.272384807916665,0.021413974843751,0.0,True,FM,6.9977459,225,full,True,6.9977459
mp-1184330,EuCdAg2,-0.252489477499999,0.028090370625001,0.0,True,FM,7.0098481,225,full,True,7.0098481
mp-866297,EuCdAu2,-0.560563128750003,0.0,0.0,True,FM,7.0225664,225,full,True,7.0225664
mp-864796,EuCdHg2,-0.459696715000006,0.0,0.0,True,FM,7.1595504,225,full,True,7.1595504
mp-1184376,EuErTl2,-0.34265632041667,0.0,0.0,True,FM,7.2315822,225,full,True,7.2315822
mp-1184283,EuGaAu2,-0.5185461006250001,0.104353575000001,0.0,True,FM,6.9391608,225,full,True,6.9391608
mp-1184442,EuGdRh2,-0.574330798749997,0.04019154520833,0.0,True,FiM,0.4296279,225,full,True,0.4296279
mp-1184270,EuHg2Bi,-0.475088751562495,0.029172100625004,0.0,True,FM,7.0508205,225,full,True,7.0508205
mp-1184462,EuHg2Pb,-0.386388202500002,0.005968410000004,0.0,True,FM,6.959824699999999,225,full,True,6.959824699999999
mp-977581,EuHgAu2,-0.5296377318750041,0.028155195624997,0.0,True,FM,6.9441751,225,full,True,6.9441751
mp-1184437,EuInAg2,-0.263443793749999,0.026052587291665,0.0,True,FM,7.0686803,225,full,True,7.0686803
mp-866021,EuInAu2,-0.586572912916667,0.014610547968744,0.0,True,FM,6.934174,225,full,True,6.934174
mp-1184408,EuInHg2,-0.412537919166672,0.0,0.0,True,FM,6.9837781,225,full,True,6.9837781
mp-1184290,EuMgCd2,-0.244412780000001,0.0,0.0,True,FM,7.075642,225,full,True,7.075642
mp-861928,EuMgHg2,-0.418228918750001,0.0,0.0,True,FM,7.1408338,225,full,True,7.1408338
mp-1184347,EuMgTl2,-0.294971869166667,0.0,0.0,True,FM,6.9559901,225,full,True,6.9559901
mp-1184328,EuMgZn2,-0.226662627500001,0.0,0.0,True,FM,6.9833762,225,full,True,6.9833762
mp-1184451,EuPbAu2,-0.5463673262500011,0.011425601249999,0.0,True,FM,6.9910602,225,full,True,6.9910602
mp-1184467,EuPuRh2,0.188202004062501,0.5196238278125,0.0,True,FiM,6.363577,225,full,True,6.363577
mp-867138,EuSnAu2,-0.6073447150000021,0.0,0.0,True,FM,6.9256392,225,full,True,6.9256392
mp-1184434,EuSnRh2,-0.473832457499999,0.016405192916665,0.0,True,FM,6.7762341,225,full,True,6.7762341
mp-861902,EuTl2Cd,-0.322450771250004,0.022355512159059,0.0,True,FM,6.9450042,225,full,True,6.9450042
mp-1184293,EuTlAu2,-0.504338152083336,0.053454775416664,0.0,True,FM,7.007738,225,full,True,7.007738
mp-1184250,EuTlHg2,-0.426044744999998,0.001636656666676,0.0,True,FM,7.1029987,225,full,True,7.1029987
mp-1184264,EuZnAu2,-0.495666281250001,0.084502417205881,0.0,True,FM,6.9071715,225,full,True,6.9071715
mp-30044,Fe2CoGe,-0.00862477125,0.149030886249999,0.0,True,FM,5.118061799999999,225,full,True,5.118061799999999
mp-1207085,Fe2CoSi,-0.196497052499999,0.1536508825,0.0,True,FM,4.278658,225,full,True,4.278658
mp-1207117,Fe2CoSi,-0.350147934999999,0.0,0.0,True,FM,5.0944857,216,full,True,4.278658
mp-1207121,Fe2SiNi,-0.284189789999999,0.065551313387094,0.0,True,FM,4.8192629,216,full,True,4.8192629
mp-22300,FeCo2Ge,-0.158624923749999,0.0,0.0,True,FM,5.9961191,225,full,True,5.9961191
mp-5436,FeCo2Si,-0.3323082825,0.006879390312499,0.0,True,FM,5.9783222,225,full,True,5.9783222
mp-21865,FeCu2Sn,0.22151781125,0.233173465,0.0,True,FM,2.772654799999999,225,full,True,2.772654799999999
mp-865191,FeGeRu2,-0.161265363749999,0.0,0.0,True,FM,4.1730335,225,full,True,4.1730335
mp-631256,FeNiMo,0.5593453566666651,0.6041609266666641,0.0,True,FiM,0.5480872,216,half,True,0.5480872
mp-631895,FePbW2,0.8515988900000011,0.8603247621875021,0.0,True,FM,1.9511508,216,full,True,1.9511508
mp-1977567,FeSbPt,-0.016417899999999,0.364374655416667,0.0,True,FM,2.4624185,216,half,True,2.4624185
mp-3464,FeSiRu2,-0.366260352499999,0.0,0.0,True,FM,4.0882311,225,full,True,4.0882311
mp-862790,FeSiTc2,-0.285735217499999,0.0,0.0,True,FM,2.645857099999999,225,full,True,2.645857099999999
mp-961653,FeSiW,-0.280795349999999,0.036524227500002,0.062899999999999,False,NM,0.0002524,216,half,False,0.0002524
mp-1184221,FeSnRh2,-0.258571511249998,0.0424522075,0.0,True,FM,3.5659837,225,full,True,3.5659837
mp-636599,FeSnRu2,-0.016346891249998,0.058733146071428,0.0,True,FM,4.0929659,225,full,True,4.0929659
mp-631425,FeTc2Cl,0.636939425,1.067297726249998,0.0,True,FM,1.0263801,225,full,True,1.0263801
mp-1184276,FeTc2Ge,-0.075069463750001,0.0,0.0,True,FM,2.5858824,225,full,True,2.5858824
mp-631553,Ga2BSb,0.883107588333331,0.997743548333332,0.0,False,NM,0.014880899999999,225,full,False,0.014880899999999
mp-1184229,Ga2CoIr,-0.354782565416663,0.035522045,0.0,True,FM,0.234615,225,full,True,0.234615
mp-865779,Ga2CoRu,-0.27669656125,0.055989149999996,0.0,False,NM,2e-07,225,full,False,2e-07
mp-865743,Ga2IrRh,-0.544217351250001,0.0,0.0,False,NM,0.0,225,full,False,0.0
mp-866041,Ga2IrRu,-0.47565982375,0.0,0.0,False,NM,0.0,225,full,False,0.0
mp-1184299,Ga2NiRu,-0.345011732461538,0.031671115913461,0.0,False,NM,0.000203199999999,225,full,False,0.000203199999999
mp-1184318,Ga2RuPt,-0.440820771249999,0.029191243750001,0.0,False,NM,0.0008981,225,full,False,0.0008981
mp-867292,Ga2RuRh,-0.535302353749998,0.0,0.0,False,NM,4.4e-06,225,full,False,4.4e-06
mp-631305,Ga2WSe,0.71038866648438,1.055398020625002,0.0,False,NM,0.0088494,225,full,False,0.0088494
mp-631565,GaAs2W,0.6295781758333231,0.891370816249988,0.0,False,NM,0.0298549,216,full,False,0.0298549
mp-1007821,GaCo2Ni,-0.104910837106226,0.094408476346153,0.0,True,FM,2.5604715,225,full,True,2.5604715
mp-1184005,GaCuNi2,-0.240820984999999,0.008674284375,0.0,False,NM,2.13e-05,225,full,False,2.13e-05
mp-1184030,GaCuPd2,-0.479113784999999,0.000919858750002,0.0,False,NM,1e-06,225,full,False,1e-06
mp-862791,GaCuPt2,-0.426771296874999,0.048846357499999,0.0,False,NM,0.0001401,225,full,False,0.0001401
mp-862485,GaCuRh2,-0.373037086874998,0.0,0.0,False,NM,0.0004481,225,full,False,0.0004481
mp-1224895,GaFe2Co,-0.148083434375,0.03382903375,0.0,True,FM,4.9303181,216,full,True,4.9303181
mp-636212,GaFe2Co,-0.043305436875,0.138607031249999,0.0,True,FM,5.9165773,225,full,True,4.9303181