material_id,formula,formation_energy,ehull,band_gap,is_magnetic_x,magnetic_ordering,total_magnetization_x,spacegroup,heusler_type,is_magnetic_y,total_magnetization_y
mp-1186762,PrEuHg2,-0.5813367529166691,0.0,0.0,True,FM,7.1993443,225,full,True,7.1993443
mp-1186785,PrEuZn2,-0.273450344166668,0.0049037525,0.0,True,FM,7.1663338,225,full,True,7.1663338
mp-976125,PrGaAu2,-0.597683749791666,0.083697661663041,0.0,False,NM,0.0008581,225,full,False,0.0008581
mp-1186749,PrHoIn2,-0.450489592499997,0.0,0.0,False,NM,4.0700000000000014e-05,225,full,False,4.0700000000000014e-05
mp-976030,PrHoMg2,-0.071360189166663,0.001159903750002,0.0,False,NM,6.9e-06,225,full,False,6.9e-06
mp-1186751,PrHoTl2,-0.457642419166667,0.017190810750015,0.0,False,NM,7.2e-06,225,full,False,7.2e-06
mp-976032,PrHoZn2,-0.310093874166664,0.010880085,0.0,False,NM,0.0026644,225,full,False,0.0026644
mp-570683,PrInAg2,-0.351087545416665,0.0,0.0,False,NM,2e-06,225,full,False,2e-06
mp-570611,PrInAu2,-0.6701467695833301,0.0,0.0,False,NM,1.2e-06,225,full,False,1.2e-06
mp-21148,PrInCu2,-0.328743497510405,0.023684857656252,0.0,False,NM,0.0003001,225,full,False,0.0003001
mp-1186750,PrInPd2,-0.6989085070833301,0.019505844621215,0.0,False,NM,5.5e-06,225,full,False,5.5e-06
mp-975932,PrLuIn2,-0.5480193870833321,0.03042928387499,0.0,False,NM,3.3e-05,225,full,False,3.3e-05
mp-975972,PrLuMg2,-0.063278377083333,0.009241715833331,0.0,False,NM,1.77e-05,225,full,False,1.77e-05
mp-11234,PrMg2Ag,-0.101571408333332,0.089976424722221,0.0,False,NM,2.85e-05,225,full,False,2.85e-05
mp-975892,PrMgAg2,-0.274575847499996,0.0,0.0,False,NM,5.17e-05,225,full,False,5.17e-05
mp-975893,PrMgAu2,-0.709627366666667,0.0,0.0,False,NM,1.699999999999999e-06,225,full,False,1.699999999999999e-06
mp-867178,PrMgCd2,-0.304115991666665,0.0,0.0,False,NM,1.33e-05,225,full,False,1.33e-05
mp-862758,PrMgHg2,-0.455156877916669,0.0,0.0,False,NM,0.0,225,full,False,0.0
mp-975914,PrMgTl2,-0.239848490833336,0.050013337291666,0.0,False,NM,0.004349299999999,225,full,False,0.004349299999999
mp-862759,PrMgZn2,-0.329452751666666,0.0,0.0,False,NM,1.25e-05,225,full,False,1.25e-05
mp-975883,PrNdHg2,-0.554989438541667,0.0,0.0,True,FM,0.893249899999999,225,full,True,0.893249899999999
mp-1186832,PrNdIn2,-0.6193329847916651,0.004071032499997,0.0,False,NM,8.720000000000003e-05,225,full,False,8.720000000000003e-05
mp-1186466,PrNdIr2,-0.622858663912204,0.110547508982143,0.0,False,NM,0.0001109,225,full,False,0.0001109
mp-975848,PrNdMg2,-0.086958564791665,0.005184279999999,0.0,False,NM,3.9900000000000014e-05,225,full,False,3.9900000000000014e-05
mp-975896,PrNdTl2,-0.386931383958338,0.0,0.0,False,NM,0.0005769,225,full,False,0.0005769
mp-975822,PrNdZn2,-0.309172522291665,0.0,0.0,False,NM,8e-06,225,full,False,8e-06
mp-1206667,PrNiBi,-0.637748460555554,0.0,0.333799999999999,False,NM,0.0,216,half,False,0.0
mp-36033,PrOF,-4.072142553888889,0.053493020000002,5.163699999999999,False,NM,0.00155,216,half,False,0.00155
mp-1186469,PrPbAu2,-0.6085797379166641,0.0,0.0,False,NM,4e-07,225,full,False,4e-07
mp-1186510,PrSmIn2,-0.6160248154166651,0.0054075275,0.0,False,NM,2.0600000000000003e-05,225,full,False,2.0600000000000003e-05
mp-1186465,PrSmIr2,-0.663839941934519,0.090227006017862,0.0,False,NM,1.7400000000000003e-05,225,full,False,1.7400000000000003e-05
mp-975880,PrSmMg2,-0.080875439166666,0.0066342325,0.0,False,NM,5.43e-05,225,full,False,5.43e-05
mp-975920,PrSmTl2,-0.380325185833335,0.000543682500002,0.0,False,NM,0.0002049,225,full,False,0.0002049
mp-975886,PrSmZn2,-0.312601976666667,0.001764507499999,0.0,False,NM,9.710000000000004e-05,225,full,False,9.710000000000004e-05
mp-862805,PrSnAu2,-0.6842041816666631,0.0,0.0,False,NM,1.4e-06,225,full,False,1.4e-06
mp-975801,PrTlAg2,-0.244498237083333,0.031586428529411,0.0,False,NM,0.0003626,225,full,False,0.0003626
mp-975789,PrTmMg2,-0.067112585416667,0.005407507499997,0.0,False,NM,5.4600000000000006e-05,225,full,False,5.4600000000000006e-05
mp-975793,PrTmTl2,-0.435410680416666,0.034001103250027,0.0,False,NM,9.960000000000004e-05,225,full,False,9.960000000000004e-05
mp-1186929,PrYIn2,0.025905547083336,0.6368378925,0.0,False,NM,0.0087811,225,full,False,0.0087811
mp-861479,PrYMg2,-0.084039455416666,0.0,0.0,False,NM,6.01e-05,225,full,False,6.01e-05
mp-982017,PrYTl2,-0.478961765416663,0.010007444500025,0.0,False,NM,8.67e-05,225,full,False,8.67e-05
mp-975769,PrYZn2,-0.314635037916666,0.0076063925,0.0,False,NM,0.0342486,225,full,False,0.0342486
mp-861929,Pu2BiAu,-0.605360265625009,0.046695987187504,0.0,True,FiM,11.9999998,225,full,True,11.9999998
mp-861744,Pu2HgBi,-0.452249675000004,0.089988359270833,0.0,True,FM,12.8754019,225,full,True,12.8754019
mp-1186804,Pu2HgGe,-0.467982233749999,0.0,0.0,True,FM,11.9422059,225,full,True,11.9422059
mp-867325,Pu2HgSb,-0.217865397499995,0.082992785104162,0.0,True,FM,12.9591389,225,full,True,12.9591389
mp-1186791,Pu2SbAu,-0.313057614374992,0.071318709687497,0.0,True,FM,12.0447778,225,full,True,12.0447778
mp-1186793,Pu2SnHg,-0.466495066250004,0.021131663333342,0.0,True,FiM,12.0131348,225,full,True,12.0131348
mp-1186806,PuAgAu2,0.064517496874998,0.439754695833336,0.0,True,FM,0.1118216,225,full,True,0.1118216
mp-861726,PuBiPd2,0.169963082812503,0.5303323711111081,0.0,True,FM,0.165008799999999,225,full,True,0.165008799999999
mp-862859,PuCdAu2,-0.5187628346875001,0.0,0.0,True,FM,5.6216083,225,full,True,5.6216083
mp-1186660,PuCdHg2,-0.277019613437502,0.0,0.0,True,FM,5.6175132,225,full,True,5.6175132
mp-862738,PuCdRh2,0.176900160312504,0.427941923750001,0.0,False,NM,0.0055111,225,full,False,0.0055111
mp-862739,PuHgAu2,0.016827809270822,0.469865389166663,0.0,True,FM,0.3156776,225,full,True,0.3156776
mp-1188083,PuInAu2,-0.565058152187496,0.0,0.0,True,FM,5.3074836,225,full,True,5.3074836
mp-1186931,PuInHg2,-0.297386043437505,0.000381315833337,0.0,True,FM,5.5559932,225,full,True,5.5559932
mp-35612,PuOF,-3.498975999583327,0.094380928333341,0.0,True,FM,5.0008461,216,half,True,5.0008461
mp-1186795,PuPbAu2,-0.223743639687494,0.0,0.0,True,FM,5.5399981,225,full,True,5.5399981
mp-861728,PuSbPd2,0.044109987812504,0.5511766809999971,0.0,True,FM,0.222609,225,full,True,0.222609
mp-861599,PuSnAu2,-0.5613286821875001,0.0,0.0,True,FM,5.3982407,225,full,True,5.3982407
mp-1186805,PuZnAu2,-0.221701712187488,0.0,0.0,True,FM,5.4864213,225,full,True,5.4864213
mp-975176,Rb2HgAu,-0.213561196875001,0.030294065273437,0.0,False,NM,0.004878599999999,225,full,False,0.004878599999999
mp-862797,RbAcTe2,-1.455777653333333,0.0,0.9157,False,NM,0.0,225,full,False,0.0
mp-1008813,RbAgO,-0.455913078055555,0.5437953425000001,0.0,False,NM,1.5e-06,216,half,False,1.5e-06
mp-1008807,RbCuO,-0.190537467499999,0.9983613533333332,0.0,False,NM,9.14e-05,216,half,False,9.14e-05
mp-1186887,RbNa2Bi,-0.334280857564657,0.008732930833331,0.0,False,NM,6.59e-05,225,full,False,6.59e-05
mp-975275,RbNa2Sb,-0.425933650064654,0.013858352083333,0.5682,False,NM,0.0,225,full,False,0.0
mp-867787,RbTl2Bi,-0.15864039854167,0.012079752239579,0.0,False,NM,1e-07,225,full,False,1e-07
mp-631573,Re2AuSe,0.869936454296869,1.0436236359375,0.0,False,NM,0.0021788,216,full,False,0.0021788
mp-631413,Re2PCl,0.953279820089283,1.533470383013888,0.0,False,NM,0.080065699999999,216,full,False,0.080065699999999
mp-631377,Re2PtRh,0.5032646783633651,0.70218715694444,0.0,False,NM,0.06323,225,full,False,0.06323
mp-631592,Re2RuBr,1.037302777499998,1.318582491666666,0.0,False,NM,0.0075772,225,full,False,0.0075772
mp-631354,ReOsRu,0.687556893444442,0.7790690602777771,0.0,False,NM,0.002955799999999,216,half,False,0.002955799999999
mp-631435,ReRuBr,1.155546917499999,1.514899743055553,0.0,False,NM,0.023990599999999,216,half,False,0.023990599999999
mp-631417,ReRuCl2,1.034860074374998,1.8187723386111112,0.0,False,NM,0.003124199999999,225,full,False,0.003124199999999
mp-631375,ReSn2Se,0.708344480234373,0.935117634375,0.0,False,NM,0.0289547,216,full,False,0.0289547
mp-631754,ReSnGe,0.951728916428569,0.951728916428571,0.0,False,NM,0.001988799999999,216,half,False,0.001988799999999
mp-5222,ReTeS,-0.6838039330555581,0.0,0.075099999999999,False,NM,0.0,216,half,False,0.0
mp-631424,ReW2Br,1.138445420625,1.456778944791667,0.0,False,NM,1.3200000000000002e-05,216,full,False,1.3200000000000002e-05
mp-862703,Sc2AgAu,-0.584058553750001,0.007804138124999,0.0,False,NM,1.0800000000000002e-05,225,full,False,1.0800000000000002e-05
mp-862702,Sc2AgHg,-0.388856000625001,0.0,0.0,False,NM,9e-07,225,full,False,9e-07
mp-862432,Sc2AgIr,-0.667457705416666,0.009654504910713,0.0,False,NM,1e-06,225,full,False,1e-06
mp-862431,Sc2AgOs,-0.374696962916667,0.0,0.0,False,NM,5.5e-06,225,full,False,5.5e-06
mp-1186932,Sc2AgPt,-0.7794751104166641,0.006450313125,0.0,False,NM,2.08e-05,225,full,False,2.08e-05
mp-862473,Sc2AgRu,-0.439213590416665,0.0,0.0,False,NM,8.4e-06,225,full,False,8.4e-06
mp-972907,Sc2AlAg,-0.369152458749999,0.0,0.0,False,NM,9.9e-06,225,full,False,9.9e-06
mp-972914,Sc2AlCd,-0.387223779999999,0.007978842500001,0.0,False,NM,0.0003502,225,full,False,0.0003502
mp-972884,Sc2AlCu,-0.347952827499996,0.0210065425,0.0,False,NM,3.94e-05,225,full,False,3.94e-05
mp-972877,Sc2AlIr,-0.736778934999999,0.029382904668803,0.0,False,NM,0.000146399999999,225,full,False,0.000146399999999
mp-862486,Sc2AlOs,-0.480398604999999,0.0,0.0,False,NM,0.000143199999999,225,full,False,0.000143199999999
mp-862546,Sc2AlRu,-0.529610327499999,0.018248340357142,0.0,False,NM,5.799999999999999e-06,225,full,False,5.799999999999999e-06
mp-862543,Sc2AlTc,-0.37082255625,0.0,0.0,False,NM,3.7e-06,225,full,False,3.7e-06
mp-862548,Sc2AlZn,-0.424913742499999,0.0,0.0,False,NM,0.0002304,225,full,False,0.0002304
mp-862553,Sc2BeRu,-0.339949423749999,0.03943887392857,0.0,False,NM,0.003131499999999,225,full,False,0.003131499999999
mp-862563,Sc2BeTc,-0.132397137499999,0.0406184023125,0.0,False,NM,4e-07,225,full,False,4e-07
mp-972882,Sc2CdAg,-0.283278636249999,0.010521727500002,0.0,False,NM,3e-07,225,full,False,3e-07
mp-1186938,Sc2CdAu,-0.5713901449999981,0.022595552999998,0.0,False,NM,2.8700000000000003e-05,225,full,False,2.8700000000000003e-05
mp-1186933,Sc2CdGa,-0.47481379,0.026029921249998,0.0,False,NM,0.0003738,225,full,False,0.0003738
mp-1186937,Sc2CdHg,-0.403301189375003,0.0,0.0,False,NM,0.0003784,225,full,False,0.0003784
mp-862711,Sc2CdIn,-0.442103669999998,0.0,0.0,True,FM,0.615992299999999,225,full,True,0.615992299999999
mp-1186935,Sc2CdOs,-0.321971174999999,0.00192742642361,0.0,False,NM,3.9e-06,225,full,False,3.9e-06
mp-862710,Sc2CdTc,-0.203817143749999,0.046371815312499,0.0,False,NM,2.7200000000000004e-05,225,full,False,2.7200000000000004e-05
mp-1186940,Sc2CoCu,-0.251795240000001,0.022116357499998,0.0,True,FiM,0.1901954,225,full,True,0.1901954
mp-862712,Sc2CoIr,-0.7195633299999991,0.0,0.0,True,FiM,0.376404099999999,225,full,True,0.376404099999999
mp-1186936,Sc2CoNi,-0.421443582499999,0.011186067499999,0.0,True,FiM,1.0553031,225,full,True,1.0553031
mp-867110,Sc2CoOs,-0.369366197499999,0.0,0.0,False,NM,9.4e-05,225,full,False,9.4e-05
mp-1186939,Sc2CoPt,-0.793826804999998,0.00548992625,0.0,True,FM,1.0297741,225,full,True,1.0297741
mp-1186944,Sc2CoRh,-0.672317409999998,0.022329242499999,0.0,False,NM,0.0015761,225,full,False,0.0015761
mp-867761,Sc2CoRu,-0.471301969999999,0.0,0.0,False,NM,0.0020365,225,full,False,0.0020365
mp-867756,Sc2CuAu,-0.543753020000001,0.000694687499998,0.0,False,NM,0.0,225,full,False,0.0
mp-867794,Sc2CuIr,-0.7032989375,0.0,0.0,False,NM,0.0,225,full,False,0.0
mp-1186945,Sc2CuNi,-0.3903659975,0.003620189999999,0.0,False,NM,2.6e-06,225,full,False,2.6e-06
mp-867802,Sc2CuOs,-0.408872759999998,0.0,0.0,False,NM,0.0001329,225,full,False,0.0001329
mp-1186941,Sc2CuPd,-0.5839053525000001,0.0,0.0,False,NM,2.1800000000000005e-05,225,full,False,2.1800000000000005e-05
mp-867117,Sc2CuPt,-0.7990680525,0.0,0.0,False,NM,0.0,225,full,False,0.0
mp-1186958,Sc2CuRh,-0.638488027499999,0.017515162499999,0.0,False,NM,9.220000000000005e-05,225,full,False,9.220000000000005e-05
mp-862338,Sc2CuRu,-0.471427819999998,0.0,0.0,False,NM,2e-07,225,full,False,2e-07
mp-862376,Sc2CuTc,-0.25305230875,0.0017331678125,0.0,False,NM,2.499999999999999e-06,225,full,False,2.499999999999999e-06
mp-862339,Sc2GaAg,-0.49452463625,0.012685692499999,0.0,False,NM,4e-06,225,full,False,4e-06
mp-972898,Sc2GaAu,-0.743668615,0.023590276249997,0.0,False,NM,5.2400000000000007e-05,225,full,False,5.2400000000000007e-05
mp-862340,Sc2GaCu,-0.4915607225,0.0,0.0,False,NM,1.33e-05,225,full,False,1.33e-05
mp-972899,Sc2GaIr,-0.8053350518749991,0.0251485025,0.0,False,NM,0.0012974,225,full,False,0.0012974
mp-1186942,Sc2GaNi,-0.5382615968749991,0.021547459375001,0.0,False,NM,8.1e-05,225,full,False,8.1e-05
mp-862300,Sc2GaOs,-0.529882809374998,0.0,0.0,False,NM,1.05e-05,225,full,False,1.05e-05
mp-1186943,Sc2GaPd,-0.77324752,0.019793296249998,0.0,False,NM,3.91e-05,225,full,False,3.91e-05
mp-972869,Sc2GaPt,-0.9098154593749992,0.0051265925,0.0,False,NM,6.9e-06,225,full,False,6.9e-06
mp-862311,Sc2GaRu,-0.6024781018749981,0.0,0.0,False,NM,6.799999999999997e-06,225,full,False,6.799999999999997e-06
mp-862324,Sc2GaTc,-0.436811050624999,0.03582183,0.0,False,NM,3.9e-06,225,full,False,3.9e-06
mp-862337,Sc2InAg,-0.427274181249998,0.0,0.0,False,NM,2.3300000000000004e-05,225,full,False,2.3300000000000004e-05
mp-1186950,Sc2InHg,-0.491708544375001,0.024600214999999,0.0,True,FM,0.5770017,225,full,True,0.5770017
mp-1186954,Sc2IrOs,-0.713824494999999,0.003505956423611,0.0,False,NM,1.51e-05,225,full,False,1.51e-05
mp-862336,Sc2IrPd,-1.000160442499997,0.0,0.0,False,NM,1.23e-05,225,full,False,1.23e-05
mp-862334,Sc2IrRh,-1.042154367499999,0.002684155,0.0,False,NM,5e-07,225,full,False,5e-07
mp-862369,Sc2IrRu,-0.8440975324999981,0.0,0.0,False,NM,8e-06,225,full,False,8e-06
mp-999256,Sc2MnC,0.735987046691811,1.169525391875,0.0,True,FiM,1.0006921,216,full,True,1.0006921
mp-999257,Sc2MnC,0.440856774191811,0.874395119375,0.0,True,FM,0.5851196,225,full,True,1.0006921
mp-999249,Sc2MnGe,-0.186364483232758,0.411654480172416,0.0,True,FiM,1.0010671,216,full,True,1.0010671
mp-999258,Sc2MnGe,-0.312315403232759,0.285703560172415,0.0,True,FiM,2.5960569,225,full,True,1.0010671
mp-999201,Sc2MnSi,-0.182561886982758,0.352196536250002,0.0,True,FiM,1.0008547,216,full,True,1.0008547
mp-999208,Sc2MnSi,-0.269243739482758,0.265514683750002,0.0,True,FM,0.375598,225,full,True,1.0008547
mp-1018017,Sc2MnSn,-0.310790319324713,0.229316521005749,0.0,True,FiM,2.6752959,225,full,True,2.6752959
mp-999207,Sc2MnSn,-0.226994024324714,0.313112816005748,0.0,True,FiM,1.0002808,216,full,True,2.6752959
mp-862360,Sc2NiIr,-0.8072102925000001,0.0,0.0,False,NM,1e-07,225,full,False,1e-07
mp-862361,Sc2NiOs,-0.497469572499998,0.0,0.0,False,NM,0.000636,225,full,False,0.000636
mp-1186955,Sc2NiPd,-0.6883054,0.019168527499999,0.0,False,NM,7e-07,225,full,False,7e-07
mp-862368,Sc2NiPt,-0.8843554249999991,0.0,0.0,False,NM,7.599999999999997e-06,225,full,False,7.599999999999997e-06
mp-972961,Sc2NiRh,-0.748820552499999,0.020373547499999,0.0,False,NM,0.0081476,225,full,False,0.0081476
mp-862367,Sc2NiRu,-0.579911954999999,0.0,0.0,False,NM,1.45e-05,225,full,False,1.45e-05
mp-972966,Sc2OsAu,-0.5890004374999971,0.003147111423611,0.0,False,NM,3.399999999999998e-06,225,full,False,3.399999999999998e-06
mp-862365,Sc2OsPd,-0.6930195999999981,0.0,0.0,False,NM,0.0,225,full,False,0.0
mp-862364,Sc2OsPt,-0.837381349999997,0.0,0.0,False,NM,0.000198799999999,225,full,False,0.000198799999999
mp-1186957,Sc2OsRh,-0.700234014999996,0.003469016423611,0.0,False,NM,0.0001634,225,full,False,0.0001634
mp-972866,Sc2PdAu,-0.8739244649999981,0.0089153025,0.0,False,NM,1.62e-05,225,full,False,1.62e-05
mp-862363,Sc2PdPt,-1.089358882500001,0.0,0.0,False,NM,6.7e-06,225,full,False,6.7e-06
mp-1186951,Sc2PdRh,-0.953069435,0.016421494999998,0.0,False,NM,4e-07,225,full,False,4e-07
mp-862370,Sc2PdRu,-0.7844749699999971,0.0,0.0,False,NM,2e-07,225,full,False,2e-07
mp-1186956,Sc2PtRh,-1.114810417499996,0.014486602500002,0.0,False,NM,2.63e-05,225,full,False,2.63e-05
mp-972879,Sc2RuAu,-0.6800551299999991,0.0,0.0,False,NM,0.0,225,full,False,0.0
mp-862371,Sc2RuPt,-0.956556294999998,0.0,0.0,False,NM,0.0001314,225,full,False,0.0001314
mp-862372,Sc2RuRh,-0.8194979575000001,0.0,0.0,False,NM,2.4700000000000004e-05,225,full,False,2.4700000000000004e-05
mp-862379,Sc2TcAg,-0.240928231666664,0.014370795312501,0.0,False,NM,4.2e-06,225,full,False,4.2e-06
mp-862378,Sc2TcAu,-0.5072878362499981,0.053100112812501,0.0,False,NM,0.0,225,full,False,0.0
mp-862375,Sc2TcHg,-0.268722304375002,0.061269083437499,0.0,False,NM,1e-07,225,full,False,1e-07
mp-862424,Sc2TcNi,-0.328546113749999,0.046318452812501,0.0,False,NM,9e-07,225,full,False,9e-07
mp-862423,Sc2TcPd,-0.549106398749999,0.040141765937501,0.0,False,NM,6.170000000000001e-05,225,full,False,6.170000000000001e-05
mp-862362,Sc2TcPt,-0.749040881249998,0.038417217812501,0.0,False,NM,2.1600000000000003e-05,225,full,False,2.1600000000000003e-05
mp-862366,Sc2TlAg,-0.337744108749998,0.0,0.0,False,NM,0.0,225,full,False,0.0
mp-861918,Sc2TlCd,-0.344184799999997,0.0,0.0,True,FM,0.917060299999999,225,full,True,0.917060299999999
mp-1186961,Sc2TlHg,-0.412965231874999,0.0,0.0,True,FM,0.9360001,225,full,True,0.9360001
mp-972861,Sc2TlTc,-0.183300312083336,0.034164898020832,0.0,False,NM,5.5e-06,225,full,False,5.5e-06
mp-1186959,Sc2TlZn,-0.305507225833333,0.0,0.0,False,NM,0.0120269,225,full,False,0.0120269
mp-1186953,Sc2ZnAg,-0.319205352916665,0.012488584999999,0.0,False,NM,1.38e-05,225,full,False,1.38e-05
mp-862257,Sc2ZnAu,-0.599019242499999,0.0,0.0,False,NM,1.51e-05,225,full,False,1.51e-05
mp-978523,Sc2ZnCu,-0.317785995,0.013394392499999,0.0,False,NM,4.0700000000000014e-05,225,full,False,4.0700000000000014e-05
mp-867242,Sc2ZnGa,-0.520936634375,0.0,0.0,False,NM,1.3400000000000002e-05,225,full,False,1.3400000000000002e-05
mp-1186952,Sc2ZnHg,-0.388919045625002,0.015134207499999,0.0,False,NM,3.799999999999998e-06,225,full,False,3.799999999999998e-06
mp-1186966,Sc2ZnIn,-0.396070646666665,0.009273122499999,0.0,False,NM,0.001042999999999,225,full,False,0.001042999999999
mp-867233,Sc2ZnIr,-0.7309582049999991,0.0,0.0,False,NM,1.3400000000000002e-05,225,full,False,1.3400000000000002e-05
mp-867243,Sc2ZnOs,-0.440798949999998,0.0,0.0,False,NM,2e-07,225,full,False,2e-07
mp-1186962,Sc2ZnPd,-0.6345709899999981,0.0100971375,0.0,False,NM,1.3600000000000002e-05,225,full,False,1.3600000000000002e-05
mp-862258,Sc2ZnPt,-0.835461669999999,0.0,0.0,False,NM,8.8e-06,225,full,False,8.8e-06
mp-862261,Sc2ZnRu,-0.494052769999999,0.0,0.0,False,NM,2.4e-06,225,full,False,2.4e-06
mp-862264,Sc2ZnTc,-0.304587158749999,0.0005834278125,0.0,False,NM,2.61e-05,225,full,False,2.61e-05
mp-31169,ScAlAg2,-0.328348003749999,0.0,0.0,False,NM,3.5e-06,225,full,False,3.5e-06
mp-10873,ScAlAu2,-0.705044028749999,0.000244816527778,0.0,False,NM,2.2000000000000003e-05,225,full,False,2.2000000000000003e-05
mp-862602,ScAlCo2,-0.426800001250001,0.0,0.0,False,NM,1e-06,225,full,False,1e-06
mp-16497,ScAlCu2,-0.429006133749999,0.0,0.0,False,NM,4.1e-06,225,full,False,4.1e-06
mp-861507,ScAlIr2,-1.009155341249998,0.0,0.0,False,NM,1e-07,225,full,False,1e-07
mp-10898,ScAlNi2,-0.627430021249998,0.0,0.0,False,NM,8.570000000000001e-05,225,full,False,8.570000000000001e-05
mp-16524,ScAlPd2,-0.960797691249999,0.0,0.0,False,NM,1.5e-06,225,full,False,1.5e-06
mp-973153,ScAlPt2,-1.114944566250001,0.019959054374998,0.0,False,NM,2.7e-06,225,full,False,2.7e-06
mp-867922,ScAlRh2,-1.089973603749999,0.0,0.0,False,NM,1.28e-05,225,full,False,1.28e-05
mp-1206681,ScBiPd,-0.8959378066666651,0.0,0.0,False,NM,0.0,216,half,False,0.0
mp-973126,ScBiPd2,-0.7100050987499921,0.07514109625,0.0,False,NM,0.0001538,225,full,False,0.0001538
mp-867127,ScCdAg2,-0.235171138749997,0.0,0.0,False,NM,3.52e-05,225,full,False,3.52e-05
mp-973170,ScCdAu2,-0.641679473749995,0.018009839999997,0.0,False,NM,1.28e-05,225,full,False,1.28e-05
mp-973141,ScCdCu2,-0.193069221249999,0.003374264999997,0.0,False,NM,0.000216799999999,225,full,False,0.000216799999999
mp-867263,ScCdHg2,-0.294731390000002,0.0,0.0,False,NM,9e-07,225,full,False,9e-07
mp-867911,ScCdPd2,-0.7143696312499981,0.0,0.0,False,NM,3e-06,225,full,False,3e-06