material_id,formula,formation_energy,ehull,band_gap,is_magnetic,magnetic_ordering,total_magnetization,spacegroup
mp-1185619,MgZn2Rh,-0.332006191249999,0.0034903027499990002,0.0,False,NM,1e-07,225
mp-11236,MgZnAg2,-0.152613897083332,0.0,0.0,False,NM,2.2000000000000003e-05,225
mp-864922,MgZnAu2,-0.41613972874999605,0.0,0.0,False,NM,4e-06,225
mp-1185615,MgZnNi2,-0.199294948749999,0.019069445381944,0.0,False,NM,0.0003206,225
mp-864923,MgZnPd2,-0.655365598749995,0.0,0.0,False,NM,1.2e-06,225
mp-977547,MgZnRh2,-0.42482178875000004,0.0,0.0,False,NM,2.1e-06,225
mp-1094471,MgZr3,0.12873738374999902,0.12873738374999902,0.0,False,NM,0.0010182,225
mp-2232196,MgZr4(CuS4)2,-1.237997251666666,0.348464734874998,0.017,True,FM,1.999015099999999,216
mp-864920,MgZrAu2,-0.59993698875,0.0,0.0,False,NM,7.299999999999999e-06,225
mp-1025460,MgZrF6,-3.984790553124999,0.0,6.5306999999999995,False,NM,0.0,225
mp-864921,MgZrIr2,-0.7444724137499971,0.0,0.0,False,NM,2.299999999999998e-06,225
mp-1185624,MgZrNi2,-0.331953008749999,0.011208180625001,0.0,False,NM,6.75e-05,225
mp-864907,MgZrPd2,-0.691977061249999,0.0,0.0,False,NM,8.9e-06,225
mp-1185625,MgZrPt2,-0.952026491249999,0.0,0.0,False,NM,1.6e-06,225
mp-864910,MgZrRh2,-0.786348676249999,0.0,0.0,False,NM,0.0,225
mp-1185622,MgZrZn2,-0.19886775625000003,0.028046670000000003,0.0,False,NM,1e-07,225
mp-1191484,Mn,0.8065849943416921,0.8065849943416921,0.0,True,FiM,25.9884061,216
mp-8634,Mn,0.42059543551724204,0.42059543551724204,0.0,False,NM,0.001341199999999,225
mp-754068,Mn(Cu3O4)2,-1.11889016986207,0.0,0.0,True,FiM,1.7239333000000001,225
mp-1222040,Mn(CuS)2,-0.452371218896551,0.13101684000000002,0.301899999999999,True,FM,20.0000001,216
mp-1222020,Mn(CuSe)2,-0.43667473552155206,0.038230847000001004,0.287099999999999,True,FM,20.0007398,216
mp-1222078,Mn(CuTe)2,-0.262623279396558,0.015646082500001,0.0,True,FM,19.440727,216
mp-1079655,Mn(NCl3)2,0.415300815613029,0.943013786666668,0.0,True,FiM,0.932056099999999,225
mp-19442,Mn(Ni3O4)2,-1.361432144528734,0.0,1.4245,True,FM,14.9999789,225
mp-28525,Mn15(Br3O10)2,-1.827961813145508,0.0,0.17069999999999902,True,FM,59.0000036,225
mp-1194187,Mn2(Co7B2)3,-0.14524499485731202,0.031236725344829002,0.0,True,FM,26.1748744,225
mp-1193061,Mn2(Ni7B2)3,-0.17003855026605202,0.080726948405169,0.0,True,FiM,0.917994099999999,225
mp-1193216,Mn20(MoC2)3,-0.018859258449185002,0.025752015742254,0.0,True,FiM,16.8494982,225
mp-1193083,Mn20(WC2)3,-0.015320274377323001,0.027868033607216004,0.0,True,FiM,16.4804491,225
mp-542830,Mn23C6,-0.022842514589771,0.0,0.0,True,FiM,23.1804815,225
mp-13079,Mn2AlCo,-0.272630423965517,0.026833108534482,0.0,True,FiM,2.0003178,216
mp-864988,Mn2AlCr,-0.16105888646551703,0.0,0.0,True,FiM,4.3145458,225
mp-864989,Mn2AlRe,-0.197732694590518,0.0,0.0,False,NM,2.92e-05,225
mp-10895,Mn2AlV,-0.317624613965518,0.0,0.0,True,FiM,4.2228412,225
mp-864990,Mn2AlW,-0.21519467146551602,0.0,0.0,True,FiM,1.0072506,225
mp-1017515,Mn2CoAs,-0.07158170834051701,0.128373048017241,0.0,True,FM,4.0004775,216
mp-22289,Mn2CoGe,-0.150149415215517,0.012225218749999002,0.0,True,FiM,3.0000195,216
mp-13085,Mn2CoSb,-0.0020621439655170003,0.12750657895474002,0.0,True,FM,4.0,216
mp-13082,Mn2CoSi,-0.345258373965517,0.024062871250000003,0.0,True,FiM,2.9999044,216
mp-22465,Mn2CoSn,0.128677697284482,0.18281062515086102,0.0,True,FM,7.3245644,216
mp-864955,Mn2CrCo,-0.042264301465516005,0.0,0.0,True,FiM,5.0001611,225
mp-1185616,Mn2CrSi,-0.16417305599137802,0.143966067543104,0.0,False,NM,0.020056499999999002,225
mp-1065918,Mn2CuGe,0.137755707284482,0.2098952440625,0.0,True,FM,3.934521,216
mp-999566,Mn2CuSb,0.132716110775863,0.29427341926724104,0.0,True,FM,4.773776,216
mp-20160,Mn2GaCo,-0.0025588458405170003,0.14761122676724,0.0,True,FM,6.9081243,216
mp-1206407,Mn2GaNi,-0.18017857571120602,0.13741071903017102,0.0,True,FM,7.341856,225
mp-1221872,Mn2GaRh,-0.157464238340517,0.18251553853448202,0.0,True,FM,6.73518,216
mp-976082,Mn2GaW,0.02212211775862,0.15844272887931102,0.0,True,FiM,0.9990005,225
mp-1008920,Mn2Ge,0.13289045637930902,0.22907650541666602,0.0,False,NM,0.0001391,216
mp-1221898,Mn2GeRu,-0.188874247715517,0.0,0.0,True,FiM,0.9151771,216
mp-22276,Mn2InCo,0.21448128936781602,0.222707588958333,0.0,True,FM,7.9943685,216
mp-1185981,Mn2IrRh,-0.16910753646551002,0.0,0.0,True,FM,8.1340832,225
mp-865011,Mn2NbAl,-0.25654126146551803,0.0,0.0,True,FiM,1.9962826999999992,225
mp-1185972,Mn2NbGa,-0.22633136942738402,0.008682127890626001,0.0,True,FiM,2.0020055,225
mp-1206364,Mn2NiSb,-0.119495010474139,0.213567548017241,0.0,True,FM,4.6604054999999995,216
mp-1221821,Mn2NiSn,0.067113844784483,0.18743183201662503,0.0,True,FM,3.994642299999999,216
mp-1185926,Mn2PdPt,-0.284900688965517,0.0,0.0,True,FM,9.2097234,225
mp-865032,Mn2PtRh,-0.28157807396551604,0.0,0.0,True,FM,9.1403288,225
mp-1008875,Mn2Sb,0.105897391034484,0.321307135689654,0.0,True,FM,3.6554963,216
mp-999558,Mn2SiNi,-0.38401348176343003,0.081615869227942,0.0,True,FM,3.876892,216
mp-1014005,Mn2SiRh,-0.21753229692888,0.33161692750000005,0.0,True,FM,7.2410637,225
mp-999576,Mn2SiRu,-0.440152907241378,0.018106028807473,0.0,True,FiM,1.998527,216
mp-999557,Mn2SnRu,0.049300554870686006,0.169589086528212,0.0,True,FM,7.1484371,216
mp-22610,Mn2SnW,0.16392142478448302,0.16392142478448302,0.0,False,NM,0.000109499999999,225
mp-21235,Mn2VGa,-0.38250483224138004,0.0,0.0,True,FiM,4.4149171,225
mp-865554,Mn2VGe,-0.277524035215515,0.0,0.0,True,FiM,1.0002615,225
mp-1206609,Mn2VIn,0.133180506896547,0.23225012551723903,0.0,True,FiM,4.026682,225
mp-865026,Mn2VSi,-0.45783600099137906,0.0,0.0,True,FiM,1.000205,225
mp-1206646,Mn2VSn,0.040932795646547004,0.14000241426724,0.0,True,FiM,0.99199,225
mp-510620,Mn2ZnH12(NO2)4,-0.8021388811430401,0.38515699836419504,1.5236,False,NM,5.5900000000000004e-05,216
mp-1193450,Mn3(Co10B3)2,-0.13630979961355502,0.047820740948275,0.0,True,FM,26.5381327,225
mp-30450,Mn3(CuBi)4,0.170178939655174,0.170178939655173,0.0,True,FM,24.3626457,225
mp-1194237,Mn3(Ni10B3)2,-0.17273883613902302,0.096628364669539,0.0,True,FM,0.3071373,225
mp-21642,Mn3(Ni10P3)2,-0.32829129764311105,0.056800054413792,0.0,True,FiM,8.110317,225
mp-5979,Mn3(P3Pd10)2,-0.435491066953455,0.0021799817559000003,0.0,True,FM,14.3533193,225
mp-973149,Mn3Al,-0.06714692844827601,0.068995943534482,0.0,True,FM,2.9960903,225
mp-1185933,Mn3Cd,0.527203849051723,0.527203849051723,0.0,True,FM,10.2521992,225
mp-999550,Mn3Ga,-0.050097415086208005,0.086223196034481,0.0,True,FM,3.9979861,225
mp-865027,Mn3Ge,-0.075110627198277,0.0,0.0,True,FiM,0.9982047,225
mp-1185924,Mn3Re,0.059814545301723004,0.059814545301723004,0.0,True,FM,3.8598417,225
mp-1185950,Mn3Sb,-0.048983781206896004,0.11257352728448201,0.0,True,FiM,1.9947556,225
mp-20211,Mn3Si,-0.29685206711207,0.011287056422414002,0.0,True,FiM,1.000047,225
mp-1018023,Mn3Sn,0.22307624030172202,0.22307624030172202,0.0,True,FM,7.1389367,225
mp-1185993,Mn3Te,-0.005140126702585001,0.300594261918103,0.0,True,FM,2.9789848,225
mp-1185979,Mn3Zn,0.16453105725574502,0.203603187212642,0.0,True,FM,4.9993861,225
mp-1221878,Mn5(Bi2Pd)2,0.093322343213164,0.224059158667711,0.0,True,FM,41.6018952,216
mp-1221874,Mn5(Bi2Rh)2,0.008584863307212,0.18886215321316502,0.0,True,FiM,41.1214989,216
mp-510113,Mn5(NiBi2)2,0.049388819242427,0.18122058914838102,0.0,True,FM,41.1898534,216
mp-1221358,Mn6BiPO12,-2.143491727111453,0.017043330468762,0.0,True,FM,25.9997747,216
mp-21628,Mn6Ni16As7,-0.21450196448573003,0.004603341060024,0.0,True,FM,24.8006012,225
mp-1194507,Mn6Ni16Ge7,-0.11686289250297201,0.130188825335909,0.0,True,AFM,0.0076551,225
mp-22372,Mn6Ni16P7,-0.42583256034779804,0.006137160931037,0.0,True,FM,23.9357068,225
mp-22290,Mn6Si7Ni16,-0.5374249038585031,0.0,0.0,True,FM,25.7292756,225
mp-653429,Mn7FeCl3O10,-1.9032996476436792,0.0,0.9382,True,FM,68.0071974,225
mp-23512,Mn8Cl3O10,-1.9253525846880142,0.007813689761933001,0.0,True,FM,65.9997223,225
mp-1185976,MnAl2Tc,-0.31610740323275904,0.019719858214287,0.0,True,FM,3.319499,225
mp-5491,MnAlAu2,-0.24791825448275803,0.0,0.0,True,FM,4.151378,225
mp-3623,MnAlCo2,-0.356646874482758,0.0,0.0,True,FM,4.1265224,225
mp-3574,MnAlCu2,-0.13084941948275802,0.040840364511494004,0.0,True,FM,3.5015772,225
mp-1221627,MnAlCuPd,-0.34629439698275805,0.110716348017241,0.0,True,FM,3.7030176,216
mp-1221620,MnAlFe2,-0.13376580448275902,0.056904699999999,0.0,True,FM,6.9721748,216
mp-31185,MnAlFe2,-0.19067050448275802,0.0,0.0,True,FiM,1.9997293999999992,225
mp-1221633,MnAlFeCo,-0.24836813198275903,0.051095400517241006,0.0,True,FiM,2.9980984,216
mp-1221621,MnAlIr,-0.20902768931034502,0.43029077068965604,0.0,True,FM,3.983836,216
mp-864950,MnAlIr2,-0.5906594619827561,0.0,0.0,True,FM,4.0661988000000004,225
mp-4922,MnAlNi2,-0.40436941198275805,0.0,0.0,True,FM,4.8484509,225
mp-864951,MnAlOs2,-0.261294584482758,0.0,0.0,True,FiM,2.1383335,225
mp-10891,MnAlPd2,-0.593034279482758,0.03033693926724,0.0,True,FM,4.0352245,225
mp-10893,MnAlPt2,-0.6880260594827581,0.006286891875000001,0.0,True,FM,4.106985,225
mp-10894,MnAlRh2,-0.683740049482759,0.0,0.0,True,FM,4.3601136,225
mp-864980,MnAlRu2,-0.414138186982759,0.0,0.0,True,FiM,2.1546744,225
mp-631551,MnAlTc,0.45283255235632003,0.750800328678161,0.0,True,FM,3.7666111,216
mp-1221624,MnAlV2,-0.155377079482758,0.100048229999996,0.0,True,FiM,1.998056,216
mp-1009131,MnAs,0.18002112728448103,0.44509168,0.0,True,FM,3.8505385,216
mp-12559,MnAsPd2,-0.23838140885775802,0.064813152499996,0.0,True,FM,4.1788836,225
mp-978261,MnBe2Co,-0.235634711982759,0.004891544008621,0.0,True,FM,3.0818405,225
mp-864943,MnBe2Ir,-0.45284055448275706,0.0,0.0,True,FM,3.3819279,225
mp-864944,MnBe2Pt,-0.47643338198275903,0.0,0.0,True,FM,3.5302834,225
mp-864945,MnBe2Rh,-0.41455210198275805,0.0,0.0,True,FM,3.3721586,225
mp-1185985,MnBe2Ru,-0.22534452948275802,0.02372113051724,0.0,True,FM,3.4236975,225
mp-1221618,MnBe4Al,-0.171403789655173,0.0,0.0,True,FM,2.0433472,216
mp-1185986,MnBeIr2,-0.36191984073276,0.0,0.0,True,FM,3.1242003,225
mp-1185984,MnBeRu2,-0.11418595823275801,0.012340230883621002,0.0,True,FiM,1.9705214,225
mp-752683,MnCd6O8,-1.453637311528734,0.0076630161111110005,0.17350000000000002,True,AFM,4.92e-05,225
mp-1221854,MnCo21B6Mo,-0.10449088148037901,0.08192940629310501,0.0,True,FiM,0.2212201,216
mp-19850,MnCo2Ge,-0.24963864073275902,0.0,0.0,True,FM,5.0221034,225
mp-5396,MnCo2Sb,-0.132216656982759,0.0,0.0,True,FM,6.0001644,225
mp-4492,MnCo2Si,-0.424367394482758,0.0,0.0,True,FM,5.0000746,225
mp-20840,MnCo2Sn,-0.10826585573275901,0.0,0.0,True,FM,5.1724073,225
mp-1221637,MnCoCuSn,0.04903823426724101,0.10899898900862101,0.0,True,FM,3.8186345999999993,216
mp-1221649,MnCoNiSn,-0.107843070732758,0.039662316666666,0.0,True,FM,5.0236573,216
mp-1008876,MnCoS,-0.21196902514367802,0.286228594952381,0.0,True,FM,3.9991223,216
mp-1221616,MnCoSb,0.256170344022988,0.428928641249998,0.0,True,FiM,3.219458099999999,216
mp-1221625,MnCoSb,0.148180990689655,0.32093928791666504,0.0,True,FM,3.6784555,216
mp-1221866,MnCoSb,-0.153660003893678,0.019098293333332003,0.0,True,FiM,28.1976776,216
mp-5318,MnCoSb,-0.126204628477009,0.046553668750000006,0.0,True,FiM,3.1140976,216
mp-570203,MnCoSb,-0.17275829722701003,0.0,0.0,True,FM,35.8653329,225
mp-1008873,MnCoSe,-0.209525096758261,0.185985739999999,0.0,True,FM,3.999721,216
mp-961696,MnCoSi,-0.17797269264367802,0.25752318958333303,0.0,True,FM,2.0037818,216
mp-1221631,MnCoSnPd,-0.171925345732758,0.100636235624999,0.0,True,FM,5.286975,216
mp-1221622,MnCoSnRh,-0.250279553232758,0.021384677500003002,0.0,True,FM,5.0163243,216
mp-1008874,MnCoTe,-0.2192231248659,0.035686802916664005,0.0,True,FM,3.9989906,216
mp-1221710,MnCr2(SeS)2,-0.8770162582312191,0.000585415357137,0.259599999999999,True,FM,22.0000002,216
mp-1221813,MnCr4CdS8,-0.980324310566501,0.0036773507142860004,0.665099999999999,True,FM,16.9993466,216
mp-1221753,MnCr4CdSe8,-0.8083666911915011,0.0,0.546899999999999,True,FM,17.0006964,216
mp-1221684,MnCr4CoS8,-0.9426961277093591,0.005306493601194001,0.0,True,FiM,13.9990219,216
mp-631383,MnCrRe,0.7117488023563201,0.7117488023563211,0.0,True,FiM,3.4814672,216
mp-16320,MnCu2Sb,0.08807061387930801,0.23986448874999902,0.0,True,FM,3.9634071,225
mp-22221,MnCu2Sn,0.09683388051724101,0.09683388051724101,0.0,True,FM,3.9029962,225
mp-1072398,MnCu4Sn,0.057948508678161,0.05794850867816,0.0,True,FM,4.7495723,216
mp-1221630,MnCuNiSn,-0.05120592573275701,0.06911206149938401,0.0,True,FM,3.8269869,216
mp-864946,MnCuPd2,-0.223007231982759,0.0,0.0,True,FM,4.6220444,225
mp-1185992,MnCuPt2,-0.260541699482757,0.019051700833335003,0.0,True,FM,4.1462434,225
mp-1206110,MnCuPt6,-0.19212937224137802,0.025806643333331002,0.0,True,FM,3.7321151,225
mp-5866,MnCuSb,-0.085109634827588,0.117282198333331,0.0,True,FM,4.4525585,216
mp-1018071,MnFe2Ge,-0.110015218232758,0.019479251666666003,0.0,True,FM,3.0098555,225
mp-1206366,MnFe2P,-0.24012985564347303,0.176942335625,0.0,True,FM,4.0001074,225
mp-5529,MnFe2Si,-0.31918941948275803,0.0,0.0,True,FM,3.0000767,225
mp-1221688,MnFe4CuO8,-1.589032732709359,0.07338627142855801,0.0,True,FiM,23.9980972,216
mp-1018024,MnFeCoGe,-0.172998520732758,0.016568034583333002,0.0,True,FM,4.0005986,216
mp-1008872,MnFeTe,-0.10858567153256701,0.12241186652298801,0.0,True,FiM,3.0017881,216
mp-623453,MnGa2Co,-0.09187147823275901,0.11899408250000001,0.0,True,FM,3.4758773,225
mp-1206866,MnGa2Ni,-0.236695576695399,0.12461850525862,0.0,True,FM,3.0652448,225
mp-865200,MnGa2Tc,-0.15382774403735403,0.028227944583335003,0.0,True,FM,3.0391813,225
mp-21171,MnGaCo2,-0.23019723135775802,0.0,0.0,True,FM,4.4203873,225
mp-1018046,MnGaFe2,-0.005847823857759,0.10850658278286501,0.0,True,FM,4.8681045,225
mp-999552,MnGaFeCo,-0.12804203635775901,0.044233782641432004,0.0,True,FiM,3.0203935,216
mp-1206694,MnGaIr,0.05975458152298901,0.39312219677083404,0.0,True,FM,4.0582729,216
mp-865088,MnGaIr2,-0.35508843635775705,0.0,0.0,True,FM,4.1402086,225
mp-20228,MnGaNi2,-0.41408997362068806,0.012727527499999001,0.0,True,FM,4.7814654999999995,225
mp-1186004,MnGaPd2,-0.46793235385775606,0.016125591142243,0.0,True,FM,4.3750791,225
mp-20269,MnGaPt,-0.181279585143677,0.27288386666666703,0.0,True,FM,3.3205524,216
mp-864948,MnGaPt2,-0.47903848135775806,0.009056291874999001,0.0,True,FM,4.3963889,225
mp-864949,MnGaRh2,-0.5291817238577591,0.0,0.0,True,FM,4.388737,225
mp-1206997,MnGaRu,0.145281113409962,0.47795388323755006,0.0,True,FM,4.4704378,216
mp-865140,MnGaRu2,-0.36268854362069103,0.0,0.0,True,FiM,2.1837146,225
mp-505781,MnGePd2,-0.324724880732758,0.079376263850574,0.0,True,FM,4.0919047,225
mp-4664,MnGeRh2,-0.438049643232758,0.0,0.0,True,FM,5.005034,225
mp-864936,MnGeRu2,-0.26884713573275704,0.0,0.0,True,FiM,3.1002186,225
mp-632623,MnIn2W,0.702948825517243,0.702948825517243,0.0,True,FiM,1.0337411,216
mp-1221573,MnInAgPd,-0.12988970406609102,0.115961785100574,0.0,True,FM,4.0554119,216
mp-22673,MnInCu2,0.054852823195815005,0.0814593251601,0.0,True,FM,3.8443755,225
mp-22731,MnInNi2,-0.24933087744252802,0.03854070617816,0.0,True,FM,4.1250437,225
mp-31328,MnInPd2,-0.391472963649423,0.0,0.0,True,FM,4.4898976,225
mp-864968,MnInRh2,-0.553888846120688,0.0,0.0,True,FM,4.6286935,225
mp-1009130,MnN,-0.31152661661637904,0.015085967812499,0.083899999999999,False,NM,2e-07,216
mp-6933,MnN,-0.23689873442888001,0.08971384999999801,0.0,True,FM,2.9483818999999993,225
mp-961666,MnNbAs,0.32608087152298704,0.7734095756896561,0.0,True,FiM,2.0681252,216
mp-864992,MnNbRu2,-0.32573629612069105,0.0,0.0,True,FM,4.1942385,225
mp-22029,MnNi2Ge,-0.223669968232758,0.01854423213362,0.0,True,FM,3.8750977,225
mp-1221566,MnNi2Sb,-0.151079201954019,0.18360387749999701,0.0,True,FM,3.2774947,216
mp-5124,MnNi2Sb,-0.26645777695402,0.068225302499996,0.0,True,FM,3.9566691,225
mp-20440,MnNi2Sn,-0.171088353232758,0.011192940535199002,0.0,True,FM,4.4403472,225
mp-1221343,MnNi7O8,-1.269460427370688,0.050435430937501004,1.0111,True,FM,18.9985527,225
mp-510613,MnNiAs,3.540748798189655,3.793629302222221,0.0,True,FM,8.0422537,216
mp-1062162,MnNiGe,-0.15112398097701002,0.10807791833333301,0.0,True,FM,3.0016477,216
mp-1063388,MnNiP,-0.239718967524629,0.31496266166666803,0.0,True,FM,4.0021718,216
mp-22541,MnNiSb,-0.106324901494249,0.32087634999999803,0.0,True,FM,3.1103749,216
mp-600124,MnNiSb,-0.42720125149425003,0.0,0.0,True,FM,4.0508132,216
mp-1221332,MnNiSnPd,-0.250402450732758,0.054043701803161,0.0,True,FM,4.0799393,216
mp-1221328,MnNiSnRh,-0.262427518232757,0.046244431517601006,0.0,True,FM,4.1902822,216
mp-1238899,MnO,-1.899430736465516,0.13313903000000202,0.0053,True,FM,4.9999661,216
mp-19006,MnO,-1.979201203965518,0.05336856250000101,0.1844,True,FM,10.000525,225
mp-1009135,MnP,0.037833573713053,0.6530780825000001,0.0,True,FM,2.6551858999999993,216
mp-1078353,MnPb2WO6,-1.893074984293103,0.039917861906252,1.299499999999999,True,AFM,7e-07,225
mp-1185995,MnPd2Au,-0.196563024482756,0.0,0.0,True,FM,4.6866859,225
mp-1210881,MnPt(CN)6,0.15505480229064,0.234191704761904,0.0,True,FM,1.0006904,225
mp-1084762,MnRe(PbO3)2,-1.8002045410431031,0.061807520816963,0.175799999999999,True,FiM,3.9893583,225
mp-631353,MnRePt,0.5821484698563211,0.839013175229887,0.0,True,FM,3.9109624,216
mp-4652,MnRh2Pb,-0.292826396954019,0.023400835000000002,0.0,True,FM,4.805893,225
mp-1783,MnS,-1.128444258647629,0.011914474999999002,0.0,True,FM,0.288333399999999,216
mp-2065,MnS,-1.140358733647628,0.0,0.0,True,AFM,0.0,225
mp-1009213,MnSb,0.14908770275862002,0.452675452499999,0.0,True,FM,4.0055011,216
mp-1009217,MnSb,-0.13598764724137802,0.16760010249999902,0.0,True,FM,3.861612199999999,225
mp-5944,MnSbAu,-0.09402536482758701,0.185878144166665,0.0,True,FM,4.7025997,216
mp-10154,MnSbIr,-0.204147135977011,0.126658778333333,0.0,True,FiM,3.1195461,216
mp-4142,MnSbPd,-0.09383622264367701,0.264541150689654,0.0,True,FM,3.2676741,216
mp-3499,MnSbPd2,-0.32721560698275803,0.042539794206895,0.0,True,FM,4.267545099999999,225
mp-567480,MnSbPt,0.007006574022989,0.425867699094828,0.0,True,FM,4.0109601,216
mp-5676,MnSbPt,-0.364117662643674,0.054743462428165,0.0,True,FM,4.0966095,216
mp-672356,MnSbPt,-0.097935512643677,0.32092561242816103,0.0,True,FM,3.3197687,216
mp-4846,MnSbRh,-0.367694117637933,0.130227988189648,0.0,True,FM,3.2416968,216
mp-568891,MnSbRh,-0.16093219097126601,0.336989914856317,0.0,True,FM,3.2980945,216
mp-568983,MnSbRh,-0.17513378763793702,0.32278831818964804,0.0,True,FM,3.2384576,216
mp-864957,MnSbRu2,-0.27916170362069004,0.0,0.0,True,FM,4.0973926,225
mp-2293,MnSe,-0.9463613767726281,0.0035405599999990003,0.048400000000000006,True,FM,5.0000003,216
mp-972,MnSe,-0.9278046767726291,0.022097259999998002,0.0,True,FM,4.9958246,225
mp-1062306,MnSiNi,-0.332069869827587,0.241212352499999,0.0,True,FM,3.0004915,216
mp-999508,MnSiNi2,-0.467382577727308,0.06936584595588201,0.0,True,FM,3.7356053,225
mp-865015,MnSiRh2,-0.776416979870688,0.0,0.0,True,FM,4.9923249,225
mp-864966,MnSiRu2,-0.582111492370692,0.0,0.0,True,FiM,3.056139,225
mp-864970,MnSiTc2,-0.439775492370692,0.0,0.0,True,FiM,1.6312007,225
mp-1018145,MnSn,0.325535348534483,0.325535348534483,0.0,True,FiM,3.0932281,225
mp-1018155,MnSn,0.8166159835344821,0.8166159835344821,0.0,True,FiM,2.9996855,216
mp-22027,MnSnAu,-0.171871310804595,0.07744045735632,0.0,True,FM,4.0514755,216
mp-11480,MnSnIr,0.285199079022988,0.511720231249999,0.0,True,FM,3.400703699999999,216
mp-20481,MnSnPd2,-0.41113451823275704,0.0,0.0,True,FM,4.3078102,225
mp-21418,MnSnPt,-0.333554184310344,0.047955984022988,0.0,True,FM,3.5655926,216
mp-583030,MnSnPt,-0.083635544310344,0.29787462402298703,0.0,True,FM,3.3143069,216
mp-4990,MnSnRh2,-0.435062605732757,0.0,0.0,True,FM,5.0245005,225
mp-864971,MnSnRu2,-0.22735765362068902,0.0,0.0,True,FiM,3.1629512,225
mp-1186000,MnTc2As,-0.125913528857759,0.006621747499998,0.0,True,FiM,2.0998116,225
mp-1186026,MnTc2Ge,-0.166263480732759,0.0,0.0,True,FiM,1.5598914,225
mp-1186002,MnTc2Sb,-0.11070557862068801,0.041088296250002,0.0,True,FiM,2.1253155,225
mp-631280,MnTcOs,0.631918567772994,0.694146287356321,0.0,True,FiM,2.412204,216
mp-631342,MnTcPd,0.47577600902298706,0.6104058372758621,0.0,True,FiM,1.2182513,216
mp-1009222,MnTe,-0.61146877724138,0.0,0.0,True,FM,4.9999971,216