material_id,formula,formation_energy,ehull,band_gap,is_magnetic_x,magnetic_ordering,total_magnetization_x,spacegroup,heusler_type,is_magnetic_y,total_magnetization_y
mp-865116,LiSmTl2,-0.331126471250001,0.0,0.0,False,NM,9e-07,225,full,False,9e-07
mp-865710,LiSnAu2,-0.388961372083331,0.0,0.0,False,NM,1e-07,225,full,False,1e-07
mp-1100396,LiSnB,0.0959620875,0.34614873888889,0.415,False,NM,0.0045143,216,half,False,0.0045143
mp-864768,LiSnIr2,-0.284437219583333,0.00299319113636,0.0,False,NM,3e-07,225,full,False,3e-07
mp-7243,LiSnPd2,-0.660608439583331,0.0,0.0,False,NM,4.299999999999999e-06,225,full,False,4.299999999999999e-06
mp-1185434,LiSnPt2,-0.5884945220833321,0.001359649999999,0.0,False,NM,1.8e-06,225,full,False,1.8e-06
mp-864784,LiSnRh2,-0.5665361545833321,0.0,0.0,False,NM,2.499999999999999e-06,225,full,False,2.499999999999999e-06
mp-631449,LiTaBe,1.320138884777777,1.447650141746028,0.0,False,NM,0.0007536,216,half,False,0.0007536
mp-977561,LiTaIr2,-0.6999207484999981,0.0,0.0,False,NM,8e-07,225,full,False,8e-07
mp-861951,LiTaRh2,-0.5893569485000001,0.0,0.0,False,NM,0.0,225,full,False,0.0
mp-861954,LiTaRu2,-0.212481911000001,0.048592828749995,0.0,False,NM,0.000128699999999,225,full,False,0.000128699999999
mp-631330,LiTaW2,0.566982471083328,0.6179066616666661,0.0,False,NM,0.0079315,225,full,False,0.0079315
mp-867285,LiTb2Ir,-0.555401524166667,0.0,0.0,False,NM,6e-07,225,full,False,6e-07
mp-864824,LiTbAu2,-0.7089497049999981,0.001166465416667,0.0,False,NM,1.9e-05,225,full,False,1.9e-05
mp-864804,LiTbHg2,-0.5166034579166731,0.0,0.0,False,NM,1.1e-06,225,full,False,1.1e-06
mp-1185445,LiTbIn2,-0.495212079166666,0.037653072857139,0.0,False,NM,4.299999999999999e-06,225,full,False,4.299999999999999e-06
mp-977542,LiTbTl2,-0.318777344166669,0.0,0.0,False,NM,2.299999999999998e-06,225,full,False,2.299999999999998e-06
mp-631334,LiTc2Pd,0.580329040833333,0.788656622499999,0.0,False,NM,0.078286899999999,225,full,False,0.078286899999999
mp-861733,LiTePd2,-0.5221784099999971,0.0768072755,0.0,False,NM,1e-07,225,full,False,1e-07
mp-1185450,LiTh2Tc,-0.079088862367427,0.058712255416665,0.0,False,NM,1.18e-05,225,full,False,1.18e-05
mp-865940,LiThAu2,-0.6073597483333311,0.0,0.0,False,NM,8e-07,225,full,False,8e-07
mp-1185437,LiThHg2,-0.339903192916672,0.0,0.0,False,NM,1.73e-05,225,full,False,1.73e-05
mp-1185466,LiThPt2,-1.0218463228125,0.056544123437497,0.0,False,NM,0.0005618,225,full,False,0.0005618
mp-1185462,LiThRh2,-0.6334192791666631,0.0,0.0,False,NM,5.4900000000000006e-05,225,full,False,5.4900000000000006e-05
mp-1185428,LiTi2Ir,-0.496507685,0.006038900416668,0.0,False,NM,1.6e-06,225,full,False,1.6e-06
mp-864930,LiTiIr2,-0.660227134166668,0.0,0.0,False,NM,4.8e-06,225,full,False,4.8e-06
mp-1185238,LiTiPd2,-0.523111463333332,0.003092032499999,0.0,False,NM,0.000152099999999,225,full,False,0.000152099999999
mp-977440,LiTiPt2,-0.8956116783333311,0.0,0.0,False,NM,0.006798699999999,225,full,False,0.006798699999999
mp-631319,LiTiRe,1.012202545833332,1.311346795555561,0.0,False,NM,0.0095595,216,half,False,0.0095595
mp-863727,LiTiRh2,-0.6442073891666651,0.0,0.0,False,NM,6.799999999999997e-06,225,full,False,6.799999999999997e-06
mp-1185239,LiTl2Pd,-0.260406741666663,0.010634181250004,0.0,False,NM,5e-07,225,full,False,5e-07
mp-861725,LiTl2Rh,-0.149139516666664,0.0,0.0,False,NM,7.499999999999998e-06,225,full,False,7.499999999999998e-06
mp-867873,LiTm2Al,-0.241690311666669,0.0,0.0,False,NM,0.001191,225,full,False,0.001191
mp-976260,LiTm2Au,-0.509104748958336,0.064151472291666,0.0,False,NM,0.000270799999999,225,full,False,0.000270799999999
mp-867136,LiTm2Co,-0.112856828333338,0.010436652499998,0.0,False,NM,8.380000000000003e-05,225,full,False,8.380000000000003e-05
mp-1185242,LiTm2Ga,-0.372029666666669,0.031783546770832,0.0,False,NM,0.0003696,225,full,False,0.0003696
mp-976339,LiTm2In,-0.331760081666665,0.014979393749996,0.0,False,NM,0.0001835,225,full,False,0.0001835
mp-867220,LiTm2Ir,-0.638711158333338,0.0,0.0,False,NM,4.1e-06,225,full,False,4.1e-06
mp-867265,LiTm2Os,-0.336532184166667,0.0,0.0,False,NM,6.7e-06,225,full,False,6.7e-06
mp-867888,LiTm2Pt,-0.799048953333329,0.027700733541667,0.0,False,NM,0.0066707,225,full,False,0.0066707
mp-867162,LiTm2Rh,-0.532870973333338,0.0,0.0,False,NM,0.0,225,full,False,0.0
mp-862614,LiTm2Ru,-0.333628705833335,0.0,0.0,False,NM,1.1e-06,225,full,False,1.1e-06
mp-862545,LiTm2Tc,-0.058693776666668,0.052382940520832,0.0,False,NM,4.599999999999997e-06,225,full,False,4.599999999999997e-06
mp-861664,LiTmAu2,-0.786110069166667,0.007620496250005,0.0,False,NM,8.8e-06,225,full,False,8.8e-06
mp-861933,LiTmHg2,-0.489551250416667,0.0,0.0,False,NM,7e-07,225,full,False,7e-07
mp-861665,LiTmIn2,-0.463767529166666,0.019500300454545,0.0,False,NM,2.499999999999999e-06,225,full,False,2.499999999999999e-06
mp-867364,LiTmPd2,-0.7363722691666651,0.027659790416695,0.0,False,NM,3e-07,225,full,False,3e-07
mp-867313,LiTmPt2,-1.052549114999983,0.027000685833336,0.0,False,NM,5.7400000000000006e-05,225,full,False,5.7400000000000006e-05
mp-976259,LiTmRh2,-0.563284643333336,0.019983254999996,0.0,False,NM,1.33e-05,225,full,False,1.33e-05
mp-861969,LiTmTl2,-0.371256011666666,0.0,0.0,False,NM,1.2e-06,225,full,False,1.2e-06
mp-1206695,LiVBi,0.269116571666676,0.548151846666677,0.0,True,FiM,3.0020125,216,half,True,3.0020125
mp-867927,LiVIr2,-0.5806818716666661,0.0,0.0,False,NM,5.2e-06,225,full,False,5.2e-06
mp-867829,LiVRh2,-0.457360071666666,0.0,0.0,False,NM,9e-07,225,full,False,9e-07
mp-1207173,LiVSb,0.042196000833331,0.497799185277775,0.0,True,FM,2.998843,216,half,True,2.998843
mp-862555,LiY2Al,-0.261960931666667,0.0,0.0,False,NM,0.003329399999999,225,full,False,0.003329399999999
mp-1185244,LiY2Ga,-0.326173605208332,0.016442154322918,0.0,False,NM,0.017397799999999,225,full,False,0.017397799999999
mp-1185251,LiY2Hg,-0.292953221041667,0.000778860833332,0.0,False,NM,1e-07,225,full,False,1e-07
mp-867235,LiY2Ir,-0.5420365783333321,0.0,0.0,False,NM,1.6e-06,225,full,False,1.6e-06
mp-862719,LiY2Os,-0.226022481666667,0.0,0.0,False,NM,8.86e-05,225,full,False,8.86e-05
mp-867121,LiY2Pt,-0.7231119595833341,0.033942637291666,0.0,False,NM,0.0136794,225,full,False,0.0136794
mp-862672,LiY2Rh,-0.451059595833331,0.009756284095238,0.0,False,NM,7.4e-06,225,full,False,7.4e-06
mp-862673,LiY2Ru,-0.244852593333332,0.0,0.0,False,NM,7.09e-05,225,full,False,7.09e-05
mp-1185241,LiY2Tl,-0.301284349166667,0.017815321874998,0.0,False,NM,0.4316738,225,full,False,0.4316738
mp-867822,LiYAu2,-0.7588378091666671,0.012634842656254,0.0,False,NM,5.4e-06,225,full,False,5.4e-06
mp-867810,LiYHg2,-0.505823462916669,0.0,0.0,False,NM,0.0,225,full,False,0.0
mp-1185248,LiYPd2,-0.6821620557083351,0.035735730124997,0.0,False,NM,8e-06,225,full,False,8e-06
mp-1100428,LiYSi,0.096882362222221,0.6720679055555541,0.3969,False,NM,0.000243499999999,216,half,False,0.000243499999999
mp-867807,LiYTl2,-0.390612731666664,0.0,0.0,False,NM,2e-07,225,full,False,2e-07
mp-1185243,LiYb2Al,-0.247043601666668,0.0,0.0,False,NM,0.0006611,225,full,False,0.0006611
mp-1185246,LiYb2Cd,-0.158762061666667,0.030475404583334,0.0,False,NM,2.54e-05,225,full,False,2.54e-05
mp-864753,LiYb2Ga,-0.366537774166669,0.0,0.0,False,NM,0.002952599999999,225,full,False,0.002952599999999
mp-864781,LiYb2Hg,-0.29092479854167,0.0,0.0,False,NM,0.1582596,225,full,False,0.1582596
mp-1185254,LiYb2In,-0.331923356666667,0.0,0.0,False,NM,0.007107,225,full,False,0.007107
mp-864759,LiYb2Ir,-0.7426528991666671,0.0,0.0,False,NM,5.2e-06,225,full,False,5.2e-06
mp-864771,LiYb2Pd,-0.484778106666667,0.042571868958336,0.0,False,NM,4.7e-06,225,full,False,4.7e-06
mp-864763,LiYb2Rh,-0.596158906666666,0.0,0.0,False,NM,0.0,225,full,False,0.0
mp-864769,LiYb2Tl,-0.24405101166667,0.029035606874998,0.0,False,NM,0.003621199999999,225,full,False,0.003621199999999
mp-1185435,LiYbAu2,-0.792985305416664,0.000783454765603,0.0,False,NM,1e-07,225,full,False,1e-07
mp-1185443,LiYbPb2,-0.36258644541666,0.059459874444435,0.0,False,NM,3.9e-06,225,full,False,3.9e-06
mp-1185447,LiYbPd2,-0.755652855416666,0.022998782903222,0.0,False,NM,0.0,225,full,False,0.0
mp-1185439,LiYbTl2,-0.363785617916668,0.0,0.0,False,NM,0.0,225,full,False,0.0
mp-1185422,LiZn2Ag,-0.164231135416667,0.007141429333318,0.0,False,NM,1.699999999999999e-06,225,full,False,1.699999999999999e-06
mp-867255,LiZn2Au,-0.392206324166668,0.0,0.0,False,NM,9e-07,225,full,False,9e-07
mp-867253,LiZn2Ir,-0.383764919166665,0.0,0.0,False,NM,3e-07,225,full,False,3e-07
mp-867252,LiZn2Ni,-0.255890503333333,0.0,0.0,False,NM,1.5e-06,225,full,False,1.5e-06
mp-867250,LiZn2Pd,-0.465649290833332,0.0,0.0,False,NM,3.1e-06,225,full,False,3.1e-06
mp-867251,LiZn2Pt,-0.561745348333332,0.0,0.0,False,NM,1e-07,225,full,False,1e-07
mp-865912,LiZn2Rh,-0.425434644166665,0.0,0.0,False,NM,3e-07,225,full,False,3e-07
mp-861625,LiZnAg2,-0.161002965416665,0.0,0.0,False,NM,5e-07,225,full,False,5e-07
mp-9124,LiZnAs,-0.518190976944444,0.0,0.5518000000000001,False,NM,0.0,216,half,False,0.0
mp-861932,LiZnAu2,-0.444158042916665,0.0,0.0,False,NM,4.7e-06,225,full,False,4.7e-06
mp-1185432,LiZnCd2,-0.159154207916664,0.024179960833329,0.0,False,NM,8.2e-06,225,full,False,8.2e-06
mp-1185430,LiZnCu2,-0.106825220833332,0.010973245000002,0.0,False,NM,1e-07,225,full,False,1e-07
mp-7575,LiZnN,-0.423469533472221,0.0,0.5187,False,NM,0.0,216,half,False,0.0
mp-1185421,LiZnNi2,-0.141806453333332,0.0,0.0,False,NM,4.53e-05,225,full,False,4.53e-05
mp-10182,LiZnP,-0.655819149880952,0.0,1.3386,False,NM,0.0,216,half,False,0.0
mp-569685,LiZnP,-0.209540389880952,0.446278759999999,0.0,False,NM,2.2300000000000003e-05,216,half,False,0.0
mp-961698,LiZnP,-0.523291766547618,0.132527383333333,0.000199999999999,False,NM,0.0012396,216,half,False,0.0
mp-867258,LiZnPd2,-0.587634210833332,0.0,0.0,False,NM,1.1e-06,225,full,False,1.1e-06
mp-1185418,LiZnPt2,-0.5866643033333331,0.0,0.0,False,NM,1.2e-06,225,full,False,1.2e-06
mp-1100430,LiZnSb,-0.446482040555553,0.004926168333334,0.000299999999999,False,NM,0.0,216,half,False,0.0
mp-976330,LiZr2Ir,-0.552409506666666,0.026766439375006,0.0,False,NM,7.8e-06,225,full,False,7.8e-06
mp-865870,LiZr2Os,-0.386841491666668,0.0,0.0,False,NM,6.9e-06,225,full,False,6.9e-06
mp-865872,LiZr2Re,-0.147805363958331,0.011782068516669,0.0,False,NM,0.0002634,225,full,False,0.0002634
mp-865893,LiZr2Tc,-0.178113899166667,0.0,0.0,False,NM,3e-06,225,full,False,3e-06
mp-865924,LiZrAu2,-0.589742580416668,0.008098890484689,0.0,False,NM,1.0800000000000002e-05,225,full,False,1.0800000000000002e-05
mp-865925,LiZrIr2,-0.685337942916667,0.0,0.0,False,NM,4e-07,225,full,False,4e-07
mp-1185423,LiZrPd2,-0.5811786304166661,0.032286635397724,0.0,False,NM,7e-07,225,full,False,7e-07
mp-865866,LiZrPt2,-0.96266349541667,0.01069648928977,0.0,False,NM,1.77e-05,225,full,False,1.77e-05
mp-865868,LiZrRh2,-0.685877525416668,0.0,0.0,False,NM,2e-07,225,full,False,2e-07
mp-631338,LiZrSc,1.131952621777777,1.138807721222223,0.0,False,NM,0.0939072,216,half,False,0.0939072
mp-865445,Lu2AgAu,-0.6856060445833301,0.0,0.0,False,NM,1.4e-06,225,full,False,1.4e-06
mp-865446,Lu2AgHg,-0.466458823958333,0.0,0.0,False,NM,0.0001433,225,full,False,0.0001433
mp-866145,Lu2AgIr,-0.692300233750001,0.001627082499997,0.0,False,NM,5.2e-06,225,full,False,5.2e-06
mp-866147,Lu2AgOs,-0.366813546249999,0.0,0.0,False,NM,2.9900000000000005e-05,225,full,False,2.9900000000000005e-05
mp-973442,Lu2AgPt,-0.91120927708333,0.009948287187498,0.0,False,NM,6e-07,225,full,False,6e-07
mp-865459,Lu2AgRu,-0.437481451249999,0.0,0.0,False,NM,8.599999999999999e-06,225,full,False,8.599999999999999e-06
mp-865463,Lu2AlOs,-0.367480858333332,0.046257772890625,0.0,False,NM,6e-07,225,full,False,6e-07
mp-973631,Lu2AlRu,-0.438247928333334,0.062838860089287,0.0,False,NM,2.8400000000000003e-05,225,full,False,2.8400000000000003e-05
mp-973625,Lu2AlTc,-0.31029451267361,0.067382953437498,0.0,False,NM,3.6e-06,225,full,False,3.6e-06
mp-973538,Lu2AlZn,-0.414974569583332,0.018132064375002,0.0,False,NM,2.4e-06,225,full,False,2.4e-06
mp-973544,Lu2BeOs,-0.185342574583333,0.136085504272058,0.0,False,NM,1.8400000000000003e-05,225,full,False,1.8400000000000003e-05
mp-973956,Lu2CdAg,-0.34641017958333,0.0,0.0,False,NM,2e-05,225,full,False,2e-05
mp-1185448,Lu2CdHg,-0.448062157708328,0.0067422925,0.0,False,NM,9.1e-06,225,full,False,9.1e-06
mp-866211,Lu2CdIn,-0.447348713333333,0.0,0.0,False,NM,0.0009054,225,full,False,0.0009054
mp-1185459,Lu2CdOs,-0.277363333333331,0.049323459875001,0.0,False,NM,3.9e-06,225,full,False,3.9e-06
mp-1185463,Lu2CdTc,-0.205622606017158,0.100925769374999,0.0,False,NM,0.057419,225,full,False,0.057419
mp-1185457,Lu2CoCu,-0.267938758333334,0.0,0.0,True,FiM,0.371380999999999,225,full,True,0.371380999999999
mp-1185467,Lu2CoIr,-0.652757725833335,0.007934619374998,0.0,True,FiM,0.5650351,225,full,True,0.5650351
mp-1185449,Lu2CoOs,-0.264868990833334,0.049261395062499,0.0,False,NM,0.045049,225,full,False,0.045049
mp-973886,Lu2CoRh,-0.622617043333334,0.014203716583333,0.0,True,FiM,0.5317484,225,full,True,0.5317484
mp-865325,Lu2CoRu,-0.382484408333334,0.0,0.0,False,NM,2e-06,225,full,False,2e-06
mp-1185452,Lu2CuAu,-0.5968943908333321,0.0,0.0,False,NM,4.599999999999997e-06,225,full,False,4.599999999999997e-06
mp-865829,Lu2CuIr,-0.6976692708333331,0.0,0.0,False,NM,9.1e-06,225,full,False,9.1e-06
mp-865830,Lu2CuOs,-0.364701523333332,0.0,0.0,False,NM,1e-07,225,full,False,1e-07
mp-1185442,Lu2CuPd,-0.6487206658333301,0.0,0.0,False,NM,0.0005287,225,full,False,0.0005287
mp-865847,Lu2CuPt,-0.904321140833332,0.0,0.0,False,NM,3e-07,225,full,False,3e-07
mp-973951,Lu2CuRh,-0.6878928658333301,0.0,0.0,False,NM,1e-07,225,full,False,1e-07
mp-865595,Lu2CuRu,-0.437005078333332,0.0,0.0,False,NM,1e-07,225,full,False,1e-07
mp-865420,Lu2CuTc,-0.223477141833324,0.029927001250001,0.0,False,NM,0.000272899999999,225,full,False,0.000272899999999
mp-973964,Lu2GaAg,-0.52546614958333,0.006820499687499,0.0,False,NM,1.6e-06,225,full,False,1.6e-06
mp-973996,Lu2GaCu,-0.445440787708335,0.003175776562496,0.0,False,NM,0.0,225,full,False,0.0
mp-1185465,Lu2GaOs,-0.441644292708333,0.046476148625001,0.0,False,NM,0.0109344,225,full,False,0.0109344
mp-1185436,Lu2GaRu,-0.525700095208331,0.012656633750003,0.0,False,NM,1.7000000000000003e-05,225,full,False,1.7000000000000003e-05
mp-865593,Lu2GaTc,-0.388103322708328,0.128013099062503,0.0,False,NM,0.0012982,225,full,False,0.0012982
mp-981393,Lu2HgAu,-0.7609173627083331,0.00648540249999,0.0,False,NM,6.7e-06,225,full,False,6.7e-06
mp-865505,Lu2InAg,-0.462731854583335,0.0,0.0,False,NM,1.82e-05,225,full,False,1.82e-05
mp-973734,Lu2InHg,-0.5176785502083371,0.011971444999993,0.0,False,NM,2.1200000000000004e-05,225,full,False,2.1200000000000004e-05
mp-865589,Lu2IrPd,-1.027502483333331,0.0,0.0,False,NM,7e-07,225,full,False,7e-07
mp-865623,Lu2IrRh,-1.025723208333333,0.0,0.0,False,NM,2.4e-06,225,full,False,2.4e-06
mp-865321,Lu2IrRu,-0.7766640933333331,0.0,0.0,False,NM,7.299999999999999e-06,225,full,False,7.299999999999999e-06
mp-865238,Lu2MgAl,-0.234523757083333,0.0,0.0,False,NM,0.0002957,225,full,False,0.0002957
mp-973759,Lu2MgCd,-0.149581029583333,0.00841109,0.0,False,NM,1e-07,225,full,False,1e-07
mp-973771,Lu2MgHg,-0.229083780208335,0.020433825,0.0,False,NM,0.0002417,225,full,False,0.0002417
mp-865240,Lu2MgIn,-0.252657528749999,0.0,0.0,False,NM,0.0145019,225,full,False,0.0145019
mp-865315,Lu2MgOs,-0.213461112083335,0.046823805249999,0.0,False,NM,1.3e-05,225,full,False,1.3e-05
mp-865318,Lu2MgRu,-0.253404497083334,0.076277752500001,0.0,False,NM,2.9400000000000003e-05,225,full,False,2.9400000000000003e-05
mp-865329,Lu2MgTc,-0.055413163333333,0.063931471041666,0.0,False,NM,0.000164,225,full,False,0.000164
mp-865337,Lu2NiIr,-0.7777233333333331,0.0,0.0,False,NM,0.00223,225,full,False,0.00223
mp-865334,Lu2NiOs,-0.431361015833332,0.01379499675,0.0,False,NM,0.011899,225,full,False,0.011899
mp-865335,Lu2NiRu,-0.524599895833333,0.0,0.0,False,NM,0.0078473,225,full,False,0.0078473
mp-865336,Lu2OsPd,-0.674920463333333,0.0,0.0,False,NM,5.7e-05,225,full,False,5.7e-05
mp-1185456,Lu2PdAu,-0.977697540833325,0.021359487499999,0.0,False,NM,2.6400000000000005e-05,225,full,False,2.6400000000000005e-05
mp-865326,Lu2PdPt,-1.232748273333335,0.002853288749996,0.0,False,NM,2e-07,225,full,False,2e-07
mp-973882,Lu2PdRh,-1.034846963333329,0.022268117500001,0.0,False,NM,1.699999999999999e-06,225,full,False,1.699999999999999e-06
mp-865320,Lu2PdRu,-0.775288643333333,0.0,0.0,False,NM,0.000109499999999,225,full,False,0.000109499999999
mp-973414,Lu2RuAu,-0.6756881333333341,0.010619887499998,0.0,False,NM,0.0001635,225,full,False,0.0001635
mp-865599,Lu2RuPt,-0.925857250833331,0.0,0.0,False,NM,1e-06,225,full,False,1e-06
mp-865601,Lu2RuRh,-0.7752929083333311,0.0,0.0,False,NM,9.320000000000004e-05,225,full,False,9.320000000000004e-05
mp-865214,Lu2TcAg,-0.236320689270833,0.023573188124998,0.0,False,NM,0.0001729,225,full,False,0.0001729
mp-973456,Lu2TcAu,-0.525055783645832,0.128939943749998,0.0,False,NM,9.890000000000005e-05,225,full,False,9.890000000000005e-05
mp-865413,Lu2TcPd,-0.53428161473958,0.093287116874999,0.0,False,NM,0.0306707,225,full,False,0.0306707
mp-866131,Lu2TlAg,-0.319393562083332,0.0,0.0,False,NM,2.59e-05,225,full,False,2.59e-05
mp-866133,Lu2TlCd,-0.269219994166665,0.0,0.0,False,NM,2.6800000000000004e-05,225,full,False,2.6800000000000004e-05
mp-973893,Lu2TlHg,-0.353303989791672,0.006757544999995,0.0,False,NM,2e-07,225,full,False,2e-07
mp-1185446,Lu2TlIn,-0.312764138333331,0.003533145000002,0.0,False,NM,2.9700000000000004e-05,225,full,False,2.9700000000000004e-05
mp-1185453,Lu2TlZn,-0.285605019166669,0.020665052499997,0.0,False,NM,0.0006851,225,full,False,0.0006851
mp-973653,Lu2ZnAg,-0.375621630833332,0.0,0.0,False,NM,2.4e-05,225,full,False,2.4e-05
mp-865406,Lu2ZnAu,-0.692995994583334,0.008753405937497,0.0,False,NM,4.599999999999997e-06,225,full,False,4.599999999999997e-06
mp-973662,Lu2ZnCu,-0.322767533333335,0.0,0.0,False,NM,1.2e-06,225,full,False,1.2e-06
mp-973636,Lu2ZnGa,-0.5319725820833341,0.031897512812498,0.0,False,NM,0.0001627,225,full,False,0.0001627
mp-973646,Lu2ZnHg,-0.466078758958332,0.01218025,0.0,False,NM,1.8e-06,225,full,False,1.8e-06
mp-973635,Lu2ZnIn,-0.446912234583329,0.029301243928571,0.0,False,NM,4.68e-05,225,full,False,4.68e-05
mp-865260,Lu2ZnIr,-0.714384725833333,0.0,0.0,False,NM,1e-07,225,full,False,1e-07
mp-865261,Lu2ZnOs,-0.372941370833332,0.0,0.0,False,NM,5.9e-06,225,full,False,5.9e-06
mp-973603,Lu2ZnPd,-0.6596680758333311,0.007728347500002,0.0,False,NM,0.0,225,full,False,0.0
mp-865414,Lu2ZnPt,-0.855569323333332,0.004623256145833,0.0,False,NM,6e-07,225,full,False,6e-07
mp-865437,Lu2ZnRu,-0.440794458333333,0.0,0.0,False,NM,2e-07,225,full,False,2e-07
mp-865917,Lu2ZnTc,-0.264749410989583,0.061318779375,0.0,False,NM,0.0040309,225,full,False,0.0040309
mp-1185507,LuAgHg2,-0.327388936666665,0.0,0.0,False,NM,2.7e-06,225,full,False,2.7e-06
mp-976931,LuAlAg2,-0.342792829166668,0.006698714999998,0.0,False,NM,8e-06,225,full,False,8e-06
mp-1185509,LuAlCu2,-0.415212584166663,0.0,0.0,False,NM,4.2e-06,225,full,False,4.2e-06
mp-1207185,LuBiPd,-0.9865517138888912,0.0,0.0,False,NM,1.2e-05,216,half,False,1.2e-05
mp-1185495,LuBiPd2,-0.7880984926666551,0.076521455250002,0.0,False,NM,0.000555199999999,225,full,False,0.000555199999999
mp-1206992,LuBiPt,-1.140844233888884,0.0,0.0,False,NM,2.499999999999999e-06,216,half,False,2.499999999999999e-06
mp-865977,LuCdAg2,-0.273370559166664,0.002375316814518,0.0,False,NM,1e-07,225,full,False,1e-07
mp-865988,LuCdHg2,-0.351147112916663,0.0,0.0,False,NM,1e-07,225,full,False,1e-07
mp-866207,LuCdPd2,-0.7664375291666601,0.0,0.0,False,NM,1.97e-05,225,full,False,1.97e-05
mp-1185512,LuCdPt2,-0.859606384166665,0.023501613250002,0.0,False,NM,0.0003627,225,full,False,0.0003627
mp-865796,LuCdRh2,-0.6920993941666641,0.0,0.0,False,NM,1.22e-05,225,full,False,1.22e-05
mp-865797,LuCo2Sn,-0.320218685416667,0.027536858749999,0.0,True,FM,1.0245375,225,full,True,1.0245375
mp-865806,LuGaCu2,-0.354985716041666,0.03238065416667,0.0,False,NM,0.0001908,225,full,False,0.0001908
mp-1185503,LuGaNi2,-0.500295441041666,0.10362219375,0.0,False,NM,0.0041582,225,full,False,0.0041582