material_id,formula,formation_energy,ehull,band_gap,is_magnetic,magnetic_ordering,total_magnetization,spacegroup
mp-1120741,Cs2HfCl6,-2.262170020555553,0.0,4.2277000000000005,False,NM,0.0,225
mp-29398,Cs2HfI6,-1.508881836590033,0.0,2.2062,False,NM,0.0,225
mp-1112911,Cs2HgAsBr6,-1.303123571931035,0.023150904416666,0.0,False,NM,0.0464517,225
mp-1112907,Cs2HgAsCl6,-1.521420806931034,0.065640632999999,0.0,False,NM,0.001295299999999,225
mp-1112603,Cs2HgAsF6,-2.409626451931035,0.07951172425000301,0.0,False,NM,0.0027879,225
mp-1112908,Cs2HgAsI6,-0.980248597931035,0.030124236249998004,0.0,False,NM,0.0002756,225
mp-1113305,Cs2HgAuBr6,-1.220187976181035,0.063475672499998,0.0,False,NM,0.0007645999999990001,225
mp-1112640,Cs2HgAuF6,-2.048917743181035,0.090653181666661,0.0,True,FM,1.0010149,225
mp-1112905,Cs2HgBiBr6,-1.4245559681810351,0.041346657437498005,0.0,False,NM,0.0016826999999990002,225
mp-1112906,Cs2HgBiCl6,-1.644076555181036,0.06979882133333201,0.0,False,NM,0.0009705,225
mp-1113179,Cs2HgBiF6,-2.503262835181035,0.07042037449999401,0.0,False,NM,0.1515607,225
mp-1113303,Cs2HgBiI6,-1.077058503181035,0.036259876812499,0.0,False,NM,0.0042067,225
mp-1112948,Cs2HgIrF6,-2.168490521181035,0.080339545333329,0.0,True,FM,0.9999207,225
mp-1113177,Cs2HgMoF6,-2.528273312181036,0.0,0.0,True,FM,1.9999988,225
mp-1112589,Cs2HgPdF6,-2.154407088181035,0.057318072999998006,0.0,True,FM,1.736947499999999,225
mp-1113296,Cs2HgSbBr6,-1.385599258181035,0.037518609937499,0.0,False,NM,0.0017917999999990002,225
mp-1112902,Cs2HgSbCl6,-1.605228663181035,0.059796787999999004,0.0,False,NM,0.043668399999999004,225
mp-1112957,Cs2HgSbF6,-2.513057586181035,0.105914603624999,0.0,False,NM,0.020339,225
mp-1113295,Cs2HgSbI6,-1.042406648181035,0.029092031982955003,0.0,False,NM,0.006016899999999,225
mp-1185537,Cs2HgTe,-0.8529707771192531,0.0,1.8046000000000002,False,NM,0.0,225
mp-992141,Cs2IBrCl6,-1.215834425931034,0.024138218999999003,0.8589,False,NM,0.0010379,225
mp-989516,Cs2ICl6F,-1.372084801931035,0.0,1.126099999999999,False,NM,0.0018997999999990002,225
mp-1113554,Cs2InAgBr6,-1.472874406764367,0.0,0.255599999999999,False,NM,0.00038859999999900005,225
mp-1096926,Cs2InAgCl6,-1.739095379764367,0.0,1.3421,False,NM,0.000102699999999,225
mp-1113588,Cs2InAgF6,-2.6328010377643682,0.0,2.1888,False,NM,0.0001791,225
mp-1113565,Cs2InAgI6,-1.084367894764367,0.053838816374996004,0.0,False,NM,0.001739399999999,225
mp-1112893,Cs2InAsBr6,-1.4022393603477,0.028765792833333,0.718699999999999,False,NM,0.000551,225
mp-1112894,Cs2InAsCl6,-1.6389216213477011,0.114032663000002,1.3524,False,NM,0.0004393,225
mp-1113140,Cs2InAsF6,-2.5510564923477013,0.13933300427778,2.1016,False,NM,0.0005338,225
mp-1112891,Cs2InAsI6,-1.038402413347701,0.066403342749998,0.129,False,NM,0.000429099999999,225
mp-1112924,Cs2InAuBr6,-1.3743806655977011,0.041450489249997,0.0,False,NM,0.0005048,225
mp-1112620,Cs2InAuCl6,-1.446286303500016,0.09540616949998401,0.0,False,NM,0.0006514,225
mp-1112611,Cs2InAuF6,-2.409391365000002,0.11264151216667101,0.6895,False,NM,0.0,225
mp-1113414,Cs2InAuI6,-1.023982195597701,0.080567248249999,0.0,False,NM,0.0007341,225
mp-1112892,Cs2InBiBr6,-1.519771350597701,0.001883916666667,0.853399999999999,False,NM,0.0003258,225
mp-1112889,Cs2InBiCl6,-1.7683429095977021,0.024267332666671002,1.7611999999999992,False,NM,0.0008099,225
mp-989538,Cs2InBiF6,-2.682546414597701,0.040167208499997005,2.2862,False,NM,0.0014746,225
mp-1112890,Cs2InBiI6,-1.144241665597701,0.007435115500002001,0.581599999999999,False,NM,0.0038594999999990004,225
mp-1113481,Cs2InCuBr6,-1.425134508597701,0.012251005749998002,0.0,False,NM,0.0012125,225
mp-1112609,Cs2InCuCl6,-1.535049823750001,0.041148164499999,0.0,False,NM,0.0536358,225
mp-1113106,Cs2InCuF6,-2.570623657597701,0.063277718250001,0.091699999999999,False,NM,0.0001425,225
mp-1112627,Cs2InGaBr6,-1.531044263347701,0.033446606749999004,1.244,False,NM,0.0001025,225
mp-1113201,Cs2InGaCl6,-1.800372903347701,0.041652341166667,1.9897,False,NM,2.03e-05,225
mp-1113099,Cs2InGaF6,-2.741083707347701,0.085040036916669,3.3133,False,NM,0.000251,225
mp-1113095,Cs2InGaI6,-1.1320824043477011,0.018848947562498,0.28350000000000003,False,NM,7.97e-05,225
mp-1113300,Cs2InHgBr6,-1.4551494638477012,0.002656622999997,0.0,False,NM,0.0006244,225
mp-1112904,Cs2InHgCl6,-1.695231016847702,0.05542370049999801,0.0,False,NM,0.0014091,225
mp-1113143,Cs2InHgF6,-2.569598613847701,0.062973400833331,0.0,False,NM,0.0054196,225
mp-1112901,Cs2InHgI6,-1.092497670847702,0.044027120374999,0.0,False,NM,0.0004284,225
mp-1113094,Cs2InSbBr6,-1.472300465597701,0.020831629999997003,0.746499999999999,False,NM,0.0003053,225
mp-1112887,Cs2InSbCl6,-1.718381814597701,0.060560473500002,1.3727,False,NM,0.0005765999999990001,225
mp-1113091,Cs2InSbF6,-2.6448153635977,0.08629174974999901,2.2146999999999992,False,NM,0.0,225
mp-1113283,Cs2InSbI6,-1.102606242597701,0.033655053749999005,0.582399999999999,False,NM,0.0027521,225
mp-28651,Cs2IrCl6,-1.388654682777775,0.0,0.0,True,FM,0.9999389,225
mp-13687,Cs2KAgF6,-2.3958961098227,0.0,0.637099999999999,True,FM,2.0000031,225
mp-1113061,Cs2KAlBr6,-1.843999176656034,0.05791235399999901,3.2314,False,NM,0.0003929,225
mp-1113059,Cs2KAlCl6,-2.194529311656035,0.034728077749999,4.6198,False,NM,4.8e-05,225
mp-1113092,Cs2KAlF6,-3.423887091656034,0.0,6.6738,False,NM,0.00036619999999900005,225
mp-1113057,Cs2KAlI6,-1.364546214656034,0.043195742749999,1.7447,False,NM,0.0010841,225
mp-1112792,Cs2KAsBr6,-1.578519398406034,0.0,3.0015,False,NM,0.0012419,225
mp-1112625,Cs2KAsCl6,-1.844898863406035,0.022251119000000003,3.4599,False,NM,0.0,225
mp-1113137,Cs2KAsF6,-2.800384116406034,0.0,4.6474,False,NM,0.0005281999999990001,225
mp-1112793,Cs2KAsI6,-1.1929861404060351,0.024127396499999003,1.8435000000000001,False,NM,0.0014854999999990002,225
mp-1112788,Cs2KAuBr6,-1.380862430656034,0.11488597212499702,0.0,True,FM,1.9970237,225
mp-1112626,Cs2KAuCl6,-1.603382724656035,0.11174141899999901,0.21030000000000001,True,FM,1.9980661999999991,225
mp-1112599,Cs2KAuF6,-2.349037818656034,0.034900710000001,0.788,True,FM,2.0030045,225
mp-1112789,Cs2KBiBr6,-1.7161221606560342,0.015466191000001002,3.4246,False,NM,0.0008024,225
mp-1111877,Cs2KBiCl6,-1.9884670916560352,0.011162291875003,4.0357,False,NM,0.0034549,225
mp-573204,Cs2KBiF6,-2.932455240656035,0.0,4.9469,False,NM,0.0,225
mp-1113055,Cs2KBiI6,-1.3145647096560351,0.040625798000001004,2.656599999999999,False,NM,0.0006927,225
mp-1112787,Cs2KCeBr6,-2.160229750656034,0.0,0.314,True,FM,0.999999899999999,225
mp-1112872,Cs2KCeCl6,-2.477003932656034,0.024356954499999,4.0361,True,FM,1.0001583,225
mp-1110986,Cs2KCeF6,-3.470062639656034,0.028537088750001,0.418699999999999,True,FM,0.9981645,225
mp-1112784,Cs2KCeI6,-1.696946254656034,0.015971807500001,0.27679999999999905,True,FM,1.0228502,225
mp-540729,Cs2KCoF6,-2.718215617656034,0.0,3.0136,False,NM,0.0,225
mp-1205683,Cs2KCrCl6,-1.948814964874999,0.0,1.553499999999999,True,FM,2.9999997,225
mp-560956,Cs2KCrF6,-3.113987139656035,0.0,4.287,True,FM,2.9998089,225
mp-6968,Cs2KCuF6,-2.570865261656034,0.0,0.8990999999999991,True,FM,1.999763199999999,225
mp-1112785,Cs2KDyCl6,-2.401450988375001,0.0,5.1988,False,NM,0.0,225
mp-579605,Cs2KEuCl6,-2.318157430156035,0.005035325750000001,0.0,True,FM,6.010528,225
mp-559454,Cs2KFeF6,-2.9453288056560343,0.0,4.095599999999999,True,FM,4.9999978,225
mp-1112623,Cs2KGaBr6,-1.701227277406034,0.07993977175000101,2.125499999999999,False,NM,0.000957,225
mp-1113050,Cs2KGaCl6,-2.010078602406035,0.053782238749997005,3.3316,False,NM,0.0016255999999990002,225
mp-989531,Cs2KGaF6,-3.073085906406034,0.0,6.0476,False,NM,0.0027821,225
mp-1112783,Cs2KGaI6,-1.263232662406034,0.10560072724999901,0.8284,False,NM,0.0018176,225
mp-1207104,Cs2KHoCl6,-2.516008354156034,0.0,5.2294,False,NM,0.0004319,225
mp-1113046,Cs2KInBr6,-1.7453492563227,0.0,2.3584,False,NM,0.0002163,225
mp-1112759,Cs2KInCl6,-2.038482780322701,0.0,3.5784000000000002,False,NM,5.5300000000000016e-05,225
mp-989639,Cs2KInF6,-3.008938931322701,0.0,5.4629,False,NM,1.3900000000000002e-05,225
mp-1113045,Cs2KInI6,-1.318719406322701,0.056265122749997,1.2626,False,NM,0.002435199999999,225
mp-1113044,Cs2KLaCl6,-2.412412663874998,0.018240628000002,4.842,False,NM,0.0014946999999990002,225
mp-1206736,Cs2KLaF6,-3.552912250156035,0.006163184249999,6.2199,False,NM,4.97e-05,225
mp-1112760,Cs2KLuCl6,-2.518982010322701,0.0,5.2423,False,NM,0.0001191,225
mp-561461,Cs2KMnF6,-2.9384884644491382,0.044973105000010005,0.0,True,FM,4.0001007,225
mp-1112871,Cs2KMoBr6,-1.619100962656034,0.034323731187497,1.6085,True,FM,2.9973899,225
mp-1111876,Cs2KMoCl6,-1.8040703413750152,0.008005947750010001,1.666,True,FM,2.9984454,225
mp-557133,Cs2KMoF6,-2.985054783656035,0.0,4.1117,True,FM,2.9999973,225
mp-1113040,Cs2KMoI6,-1.190529416656035,0.07785170870833501,1.452699999999999,True,FM,2.9985114,225
mp-989580,Cs2KNF6,-1.830823522156034,0.038152203999999,2.9855,False,NM,0.00044689999999900006,225
mp-1112758,Cs2KNdBr6,-2.173311539406035,0.0,4.2395,False,NM,0.001438,225
mp-1112753,Cs2KNdCl6,-2.491796695406035,0.010971822916666001,5.1287,False,NM,0.0009090999999990001,225
mp-1113039,Cs2KNdI6,-1.709800668406034,0.0011356095000020002,3.2412,False,NM,0.002293399999999,225
mp-557958,Cs2KNiF6,-2.5994694826560343,0.0021888419999990002,0.0,True,FM,0.999991299999999,225
mp-989585,Cs2KPbF6,-2.774147984656034,0.0,0.0,True,FM,0.9773873,225
mp-1113037,Cs2KPdF6,-2.493880874656034,0.014195046499999002,0.0,True,FM,0.9996598,225
mp-1112754,Cs2KPrBr6,-2.168916045822701,0.0,4.2336,False,NM,0.0012889,225
mp-1112721,Cs2KPrCl6,-2.484897917822701,0.013798443250003001,4.9664,False,NM,0.0009749,225
mp-1111021,Cs2KPrF6,-3.513127368822701,0.0018116844999990001,6.2956,False,NM,0.000286499999999,225
mp-1113035,Cs2KPrI6,-1.707886227822701,0.004719217625005,3.2327999999999992,False,NM,0.0,225
mp-1183766,Cs2KRb,0.032940831484913,0.032940831484913,0.0,False,NM,0.0016649,225
mp-561561,Cs2KRhF6,-2.639720883656034,0.0,2.101299999999999,False,NM,0.0,225
mp-1112583,Cs2KRuF6,-2.626373155656035,0.0,0.0,True,FM,0.999765999999999,225
mp-1112853,Cs2KSbBr6,-1.6620510366560342,0.026752557500001002,2.8501000000000003,False,NM,0.0006751,225
mp-1111873,Cs2KSbCl6,-1.9321687676560342,0.012945226,3.393,False,NM,0.0011367,225
mp-1111020,Cs2KSbF6,-2.893585655656034,0.023834179999997002,4.1778,False,NM,0.0009014,225
mp-1112709,Cs2KSbI6,-1.266265636656034,0.04521452100000101,2.441,False,NM,0.0007484999999990001,225
mp-1113047,Cs2KScBr6,-2.116622574156034,0.010452542000002,3.1875,False,NM,0.0012485,225
mp-571124,Cs2KScCl6,-2.452173358156034,0.0,3.7113,False,NM,0.0002633,225
mp-1113131,Cs2KScF6,-3.575326795156035,0.0,6.8201,False,NM,0.0004887,225
mp-1112710,Cs2KScI6,-1.639713362156034,0.0,2.3591,False,NM,0.0012469,225
mp-1079871,Cs2KSmCl6,-2.501133066156034,0.0,5.0573,False,NM,0.0005212,225
mp-1112695,Cs2KTaBr6,-1.6466859063893682,0.10441690472499701,0.0,True,FM,2.0123006,225
mp-1112693,Cs2KTaCl6,-1.971582266389368,0.10786072320000101,0.0,True,FM,1.9991682,225
mp-1110984,Cs2KTaF6,-2.948754121389368,0.163675575806669,0.0,True,FM,2.0000095,225
mp-1113031,Cs2KTaI6,-1.202108885389368,0.12609146006249802,0.0,True,FM,1.9972193999999992,225
mp-580631,Cs2KTbCl6,-2.514091067322701,0.0,5.0878,False,NM,0.0003549,225
mp-6178,Cs2KTiF6,-3.308803861989368,0.0,0.0,True,FM,1.0001204,225
mp-1113030,Cs2KTlBr6,-1.597138481989369,0.030537573249999003,1.3749,False,NM,0.0008135999999990001,225
mp-1113029,Cs2KTlCl6,-1.8566590079893681,0.0064588685,2.3439,False,NM,0.0006885999999990001,225
mp-989526,Cs2KTlF6,-2.724906554989368,0.0,3.605,False,NM,0.0010088,225
mp-1112692,Cs2KTlI6,-1.206729194989369,0.09173458575000001,0.5223,False,NM,0.0037292999999990004,225
mp-558895,Cs2KVF6,-3.164672170656035,0.0,0.0,True,FM,2.0000094,225
mp-1112842,Cs2KYBr6,-2.180973091656034,0.0,4.2852,False,NM,0.0013007,225
mp-1112690,Cs2KYCl6,-2.509723881656034,0.0,5.1935,False,NM,0.0012258,225
mp-6059,Cs2KYF6,-3.579909350656033,0.0,6.464,False,NM,0.0002352,225
mp-1112687,Cs2KYI6,-1.707406436656035,0.002636160999999,3.2816,False,NM,0.002103599999999,225
mp-1206442,Cs2KYbCl6,-2.407882218374999,0.0,0.0,False,NM,0.0,225
mp-1113585,Cs2LaAgCl6,-2.099733136999998,0.009555992000004001,3.609899999999998,False,NM,0.0066161,225
mp-1113410,Cs2LaAuCl6,-2.093776056431034,0.116057169874999,2.275,False,NM,0.0002733,225
mp-1113523,Cs2LaCuCl6,-2.047499776999994,0.05258387387499901,2.1808,False,NM,0.0009600000000000001,225
mp-1113026,Cs2LiAuCl6,-1.366561905166668,0.12624868424999902,0.0,True,FM,1.4990909000000001,225
mp-1112579,Cs2LiAuF6,-2.330019072264368,0.104046153500001,0.529799999999999,True,FM,2.000738,225
mp-1111865,Cs2LiBiBr6,-1.6839514202643682,0.011177394,2.9154,False,NM,1.1e-06,225
mp-1111851,Cs2LiBiCl6,-1.772370703916661,0.009026440833334001,3.6075,False,NM,0.0003432,225
mp-1110976,Cs2LiBiF6,-2.841523651291669,0.005219256000001,4.8946000000000005,False,NM,0.0007947,225
mp-1112838,Cs2LiBiI6,-1.274236002264368,0.031421520000002,1.9323000000000001,False,NM,0.0004451,225
mp-1111848,Cs2LiCeBr6,-2.132611850264368,0.0,0.29090000000000005,True,FM,0.9996535,225
mp-1110975,Cs2LiCeF6,-3.509958261264367,0.004648865777763,0.529899999999999,True,FM,0.9991789,225
mp-1112680,Cs2LiCeI6,-1.661094788264367,0.0022902885000000003,0.25720000000000004,True,FM,0.999095499999999,225
mp-6884,Cs2LiCo(CN)6,-0.30138707579023,0.024159220312499,4.2816,False,NM,0.0001579,225
mp-20988,Cs2LiCr(CN)6,-0.272395689540229,0.162475241562499,1.716899999999999,True,FM,3.0002404,225
mp-1113018,Cs2LiDyCl6,-2.4873172784310342,0.0,5.0917,False,NM,5.1100000000000016e-05,225
mp-1111446,Cs2LiErCl6,-2.489334767264368,0.0,5.1941,False,NM,0.0,225
mp-1113199,Cs2LiEuCl6,-2.303256872764368,0.0,0.0,True,FM,6.0,225
mp-1189338,Cs2LiFe(CN)6,-0.042898816415229,0.31431042468749903,0.0,True,FM,0.996802,225
mp-21013,Cs2LiFe(CN)6,-0.260311240165229,0.09689800093749901,0.0,True,FM,1.0150623,225
mp-1112624,Cs2LiGdCl6,-2.482845278264368,0.0,2.782,True,FM,7.0000003,225
mp-989405,Cs2LiInBr6,-1.701866446931034,0.0,1.318,False,NM,0.0,225
mp-1113017,Cs2LiInCl6,-1.998909373931034,0.013287326999998001,2.7765,False,NM,9.350000000000002e-05,225
mp-1113016,Cs2LiInF6,-2.969153529583319,0.004074148833332,5.227,False,NM,7.599999999999997e-06,225
mp-574653,Cs2LiIr(CN)6,-0.36910487079023,0.0,5.4079,False,NM,0.0003739,225
mp-1245352,Cs2LiLaBr6,-2.182892615764368,0.013841643000002,3.7835,False,NM,0.002050299999999,225
mp-1112681,Cs2LiLaCl6,-2.383809663916666,0.016952530500004,4.4927,False,NM,0.00016779999999900003,225
mp-570379,Cs2LiLuCl6,-2.487084079931035,0.0,5.3389,False,NM,5.6300000000000006e-05,225
mp-6854,Cs2LiMn(CN)6,-0.25721712378592,0.12043444843749901,0.0,True,FM,1.9996801999999991,225
mp-1111847,Cs2LiMoBr6,-1.568247811264368,0.04856341499999801,1.2684,True,FM,2.9984781,225
mp-1110989,Cs2LiMoCl6,-1.7532968331666892,0.033437410125007005,1.597799999999999,True,FM,3.0000228,225
mp-1110974,Cs2LiMoF6,-2.955805476264368,0.0,4.8178,True,FM,2.9998719,225
mp-1112836,Cs2LiMoI6,-1.132964402264368,0.085883737708333,0.9856,True,FM,2.9989691,225
mp-989536,Cs2LiNF6,-1.765930372764367,0.10278337999999901,2.7298,False,NM,0.0003684,225
mp-1112580,Cs2LiNbF6,-2.960979704791667,0.11591229949999601,0.0,True,FM,1.9997268,225
mp-1111845,Cs2LiNdBr6,-2.144003541014368,0.0,3.9972000000000003,False,NM,0.0003769,225
mp-1111841,Cs2LiNdCl6,-2.468828824014367,0.00019706841666400002,4.8227,False,NM,0.000106,225
mp-1110973,Cs2LiNdF6,-3.5153249379999982,0.039782480000006004,7.055000000000001,False,NM,0.0005272,225
mp-1112834,Cs2LiNdI6,-1.671915922014368,0.0,2.9743,False,NM,0.0010827,225
mp-1112572,Cs2LiPdF6,-2.414089176541671,0.086950592625003,0.0,True,FM,1.000588,225
mp-1111839,Cs2LiPrBr6,-2.140288113431034,0.0,3.9721,False,NM,0.0003947,225
mp-1111836,Cs2LiPrCl6,-2.462699099431034,0.014602899000007,4.7971,False,NM,0.0001336,225
mp-1110972,Cs2LiPrF6,-3.541407002833341,0.023270645999987002,6.9993,False,NM,0.0005962,225
mp-1113008,Cs2LiPrI6,-1.670642214431034,0.0,2.960899999999999,False,NM,0.0010953,225
mp-1111835,Cs2LiSbBr6,-1.629354310264367,0.022989746500001,2.3396,False,NM,0.0002153,225
mp-1111439,Cs2LiSbCl6,-1.905229178264368,0.018736179999997,2.950799999999999,False,NM,0.0004341,225
mp-1110971,Cs2LiSbF6,-2.876263361264368,0.089258366999999,4.1258,False,NM,8.5e-06,225
mp-1112673,Cs2LiSbI6,-1.226407345264368,0.035539827000001,1.7376,False,NM,0.0003982,225
mp-1113004,Cs2LiScCl6,-2.415985888764368,0.011216128999999,3.7738,False,NM,0.0,225
mp-1113081,Cs2LiScF6,-3.531894355666664,0.022663992999987,6.6268,False,NM,5.5100000000000004e-05,225
mp-1112671,Cs2LiSmCl6,-2.476640961764368,0.0,4.9508,False,NM,3.4800000000000006e-05,225
mp-1111834,Cs2LiTaBr6,-1.6018505579977012,0.11279271572499901,0.0,True,FM,1.9988409999999992,225
mp-1110988,Cs2LiTaCl6,-1.9310398439977012,0.12018416116666701,0.0,True,FM,1.9996014,225
mp-1110970,Cs2LiTaF6,-2.9775422172566612,0.18134793900001,0.0,True,FM,1.9999782,225
mp-1113000,Cs2LiTaI6,-1.150978884997702,0.127688475062499,0.0,True,FM,1.9986259,225
mp-1112669,Cs2LiTbCl6,-2.487051111931034,0.0,5.0434,False,NM,3.7800000000000004e-05,225
mp-1112670,Cs2LiTlBr6,-1.5606246395977021,0.030591878250000003,0.5505,False,NM,0.00023889999999900002,225
mp-1112999,Cs2LiTlCl6,-1.823550346597702,0.018173167250002002,1.5236,False,NM,0.00016209999999900002,225
mp-989562,Cs2LiTlF6,-2.6390352542916613,0.010150473500001,3.4518,False,NM,0.0005468,225
mp-1112998,Cs2LiTmCl6,-2.386300208166665,0.0,5.2527,False,NM,0.0,225
mp-1111833,Cs2LiYBr6,-2.147137565264367,0.0,4.0508,False,NM,0.0,225
mp-567652,Cs2LiYCl6,-2.4818211412643683,0.0,4.8986,False,NM,0.0001648,225
mp-1110969,Cs2LiYF6,-3.561357111833335,0.015688844166666,7.266299999999999,False,NM,3.05e-05,225
mp-1112663,Cs2LiYI6,-1.665472209264368,0.0,3.008499999999999,False,NM,0.0,225
mp-1113542,Cs2LuAgCl6,-2.213980608764367,0.0,3.7052,False,NM,0.0001491,225
mp-7331,Cs2MgFe(CN)6,-0.457082043394397,0.0,4.1775,False,NM,0.0002744,225
mp-1205772,Cs2MnCl6,-1.696653019942529,0.0,1.342299999999999,True,FM,2.9999997,225
mp-557912,Cs2MnF6,-2.909271344137932,0.0,3.3832,True,FM,3.0000002,225
mp-640345,Cs2MnFe(CN)6,-0.273299737327587,0.014741240468747,0.0,True,FM,0.9990293,225
mp-1112588,Cs2MnHgF6,-2.614555661974138,0.0497754205,0.387399999999999,True,FM,5.0000357,225
mp-1207229,Cs2MoBr6,-1.516381913256704,0.0,0.0,True,FM,1.9999995,225
mp-570990,Cs2MoCl6,-1.664493802777776,0.0,0.0,True,FM,1.999999299999999,225
mp-1112997,Cs2NaAlCl6,-2.009850319500002,0.036336886750001005,4.121300000000001,False,NM,0.0001219,225
mp-1112569,Cs2NaAlF6,-3.391905580068965,0.015831242500000002,6.7033000000000005,False,NM,3.9e-06,225
mp-989642,Cs2NaAlH6,-0.314065184818965,0.0,1.8894000000000002,False,NM,1.48e-05,225
mp-1110566,Cs2NaAsBr6,-1.5512136298189652,0.0,2.559,False,NM,0.0008332,225
mp-989608,Cs2NaAsCl6,-1.821436938818965,0.016167040000001,2.8421000000000003,False,NM,0.0006056999999990001,225
mp-1112596,Cs2NaAsF6,-2.7859535898189662,0.0,4.557799999999999,False,NM,0.0005972,225
mp-1110565,Cs2NaAuBr6,-1.361198000068965,0.09792636512499701,0.0,False,NM,0.1733207,225
mp-1112994,Cs2NaAuCl6,-1.577567931068966,0.10801020899999901,0.0,True,FM,1.948424199999999,225
mp-1113077,Cs2NaAuF6,-2.339185635068966,0.045449028999997004,0.6262,True,FM,1.999788999999999,225
mp-1112661,Cs2NaBiBr6,-1.692775468068966,0.002188846000002,3.177499999999999,False,NM,0.000102699999999,225
mp-1080041,Cs2NaBiCl6,-1.796543229000002,0.0,3.7126,False,NM,0.0,225
mp-560790,Cs2NaBiF6,-2.9280084390689662,0.0,5.021000000000001,False,NM,0.0,225
mp-1112659,Cs2NaBiI6,-1.285656405068965,0.025544727000002,2.107399999999999,False,NM,0.0004189,225
mp-989644,Cs2NaCaCl6,-2.04173653625,0.071042116,0.0,False,NM,1.0002204,225
mp-989572,Cs2NaCaF6,-3.051177751068965,0.009895626500001,0.0,False,NM,0.9994757,225
mp-1079458,Cs2NaCeCl6,-2.461676563068965,0.0,0.36010000000000003,True,FM,1.0001125,225
mp-1110982,Cs2NaCeF6,-3.513165307068965,0.0,6.3611,True,FM,0.9989971,225
mp-1112656,Cs2NaCeI6,-1.6711747860689652,0.0,2.3813,True,FM,0.9979971,225
mp-1205696,Cs2NaCrCl6,-1.9078512452499998,0.0072841995000000005,1.3532,True,FM,2.9997642,225