material_id,formula,formation_energy,ehull,band_gap,is_magnetic,magnetic_ordering,total_magnetization,spacegroup
mp-1110830,K2NaPrF6,-3.465068962754597,0.08622170549999901,5.9483,False,NM,0.0012636,225
mp-1110962,K2NaPrI6,-1.5776783407545971,0.078334507750001,3.1022,False,NM,0.0022592,225
mp-14039,K2NaRhF6,-2.63281606158793,0.0,2.000099999999999,False,NM,0.0,225
mp-1111874,K2NaRuF6,-2.619698995587931,0.0,0.0,True,FM,0.949611499999999,225
mp-1110891,K2NaSbBr6,-1.5489596735879299,0.028807362750000003,2.5456,False,NM,0.0024313,225
mp-1110890,K2NaSbCl6,-1.640746519249997,0.04159037175,3.1323,False,NM,0.001281,225
mp-1110829,K2NaSbF6,-2.86293187858793,0.057963318499998,3.9986,False,NM,0.0,225
mp-1110961,K2NaSbI6,-1.13862011858793,0.0767649965,2.0979,False,NM,0.0037568,225
mp-1111649,K2NaScBr6,-2.01212666408793,0.0,3.0952,False,NM,0.0008895,225
mp-1111621,K2NaScCl6,-2.240232137666674,0.010331374749993,3.9133,False,NM,0.000315399999999,225
mp-6058,K2NaScF6,-3.56599070808793,0.0,6.749700000000001,False,NM,1.97e-05,225
mp-1111618,K2NaScI6,-1.515416539087931,0.031965999499999,2.1954000000000002,False,NM,0.0015069,225
mp-1111223,K2NaSmCl6,-2.402175737087931,0.051981336749999,4.8597,False,NM,0.00019649999999900002,225
mp-1110889,K2NaTaBr6,-1.542657373321264,0.15841291772499802,0.0,True,FM,1.9986603,225
mp-1112873,K2NaTaCl6,-1.884568399321264,0.14977454512500202,0.0,True,FM,2.001524,225
mp-1110828,K2NaTaF6,-2.9289763153212642,0.22909059710666801,0.0,True,FM,2.0,225
mp-1111221,K2NaTaI6,-1.079783343321263,0.178183065718751,0.0,True,FM,1.9978411,225
mp-1111622,K2NaTbCl6,-2.31291194625,0.034683109000001,4.9113,False,NM,0.004699,225
mp-1111871,K2NaTiF6,-3.306311992921264,0.0,0.0,True,FM,1.0045363,225
mp-1111915,K2NaTlBr6,-1.484529931921265,0.07155540175000001,1.0308,False,NM,9.199999999999997e-06,225
mp-1111616,K2NaTlCl6,-1.759131810921265,0.036829457,1.9894,False,NM,0.000253099999999,225
mp-13798,K2NaTlF6,-2.693568741921265,0.0,3.6205,False,NM,0.0,225
mp-1111222,K2NaTlI6,-1.079404686921265,0.12848088300000002,0.07489999999999901,False,NM,0.012969,225
mp-1111615,K2NaTmCl6,-2.313449095083332,0.018398819166655003,4.9718,False,NM,0.0127099,225
mp-1080537,K2NaVF6,-3.163481748587931,0.0,0.0,True,FM,2.0000805,225
mp-1110888,K2NaYBr6,-2.06990499458793,0.026535425,4.0741,False,NM,0.000641,225
mp-1110860,K2NaYCl6,-2.314701851499999,0.027920027749999,4.9526,False,NM,4.4100000000000015e-05,225
mp-13799,K2NaYF6,-3.547740040587931,0.032046437249999005,6.2393,False,NM,0.0,225
mp-1110826,K2NaYI6,-1.579217140587931,0.063173374999999,3.1298999999999992,False,NM,0.000117199999999,225
mp-1112280,K2NbAgF6,-2.5928818616166662,0.338027871433336,0.0,True,FM,1.9837,225
mp-1112494,K2NbAuF6,-2.564217577449999,0.37372711020000005,0.136299999999999,False,NM,0.00019679999999900003,225
mp-1112365,K2NbHgF6,-2.7347258017,0.196183931350002,0.0,True,FM,0.999912399999999,225
mp-1111198,K2NbTlF6,-2.7183344557833333,0.21257527726666703,0.0,True,FM,1.9994166,225
mp-1110916,K2NdAgBr6,-1.8063844393666662,0.08359632899999901,3.2105,False,NM,1.3400000000000002e-05,225
mp-1110915,K2NdAgCl6,-1.9837469667499992,0.071191651750002,3.498599999999999,False,NM,0.0004432,225
mp-1110850,K2NdAgF6,-3.093247290366665,0.12478243100000501,2.4403,False,NM,0.0012752,225
mp-1110950,K2NdAgI6,-1.364911975366666,0.091035239,2.5576,False,NM,0.0027835,225
mp-1112422,K2NdAuCl6,-1.9717997982000002,0.17118854729166902,2.2347,False,NM,0.0005099,225
mp-1110908,K2NdCuBr6,-1.764102558199999,0.09747644700000001,2.2312,False,NM,0.0006178,225
mp-1112227,K2NdCuCl6,-1.9470927702499972,0.09466174075000501,2.4258,False,NM,0.000655,225
mp-1112246,K2NdCuF6,-3.063690165199999,0.21147356274998902,0.35849999999999904,False,NM,0.00014989999999900002,225
mp-1110945,K2NdCuI6,-1.310633624199999,0.12044520416666701,1.8245,False,NM,0.0006638,225
mp-1111941,K2NiAuF6,-2.20911092745,0.13611740466667402,0.0,True,FiM,0.9985719999999991,225
mp-605034,K2NiF6,-2.384495597166662,0.0,2.3603,False,NM,0.0,225
mp-1112157,K2NiHgF6,-2.418037982700001,0.007612064999999,1.9584000000000001,True,FM,1.9995979,225
mp-971,K2O,-1.233878036499999,0.0,1.7072,False,NM,0.0,225
mp-27835,K2OsBr6,-1.237443363833331,0.0,0.0,True,FM,2.0,225
mp-23533,K2OsCl6,-1.32268803361111,0.0,0.0,True,FM,2.0,225
mp-1205761,K2PdBr6,-1.306930614944443,0.0,0.5077,False,NM,0.0,225
mp-23067,K2PdCl6,-1.313050104722221,0.0,1.2027,False,NM,0.0,225
mp-1110914,K2PrAgBr6,-1.801512863783333,0.089876523499999,3.183099999999999,False,NM,1.23e-05,225
mp-1110913,K2PrAgCl6,-2.102072147783333,0.078301693000001,3.4664,False,NM,0.00043759999999900005,225
mp-1110849,K2PrAgF6,-3.075195209783333,0.136082400500001,2.5361000000000002,False,NM,0.001194599999999,225
mp-1110966,K2PrAgI6,-1.362957491783333,0.096598853750001,2.5488,False,NM,0.0028054,225
mp-1112421,K2PrAuCl6,-1.964214408616666,0.178640836166668,2.2392,False,NM,0.0005107,225
mp-1110907,K2PrCuBr6,-1.759349270616666,0.103638353499999,2.2293,False,NM,0.0006416,225
mp-1112220,K2PrCuCl6,-1.938068595916667,0.102009442999998,2.2912,False,NM,0.0025209,225
mp-1110840,K2PrCuF6,-3.045364464616666,0.22410397350000003,0.315999999999999,False,NM,0.000912699999999,225
mp-1110944,K2PrCuI6,-1.309019144616666,0.125668814916668,1.8073000000000001,False,NM,0.0022687,225
mp-1062676,K2Pt,-0.030913012499998,0.0,1.3146,False,NM,0.0,225
mp-27691,K2PtBr6,-1.346559577166666,0.0,1.1688,False,NM,0.0,225
mp-23513,K2PtCl6,-1.3733973636111099,0.0,1.8566,False,NM,0.0,225
mp-1111617,K2RbAlBr6,-1.7439746852,0.13075382799999902,3.3626,False,NM,0.0003102,225
mp-1111613,K2RbAlCl6,-2.0999662172,0.110053935999999,4.487,False,NM,0.0013432,225
mp-1111386,K2RbAlF6,-3.3692481742,0.053975596499999,5.946400000000001,False,NM,0.0,225
mp-1111610,K2RbAlI6,-1.259210377199999,0.13004110575000102,1.9161000000000001,False,NM,0.0017584,225
mp-1111609,K2RbAsBr6,-1.469449978949999,0.087669539500001,3.0965,False,NM,0.0151469,225
mp-1111770,K2RbAsCl6,-1.737036064949999,0.080949941249999,3.4807,False,NM,0.001284,225
mp-1111443,K2RbAsF6,-2.713085384949999,0.065215850562498,3.8905000000000003,False,NM,0.0,225
mp-1111606,K2RbAsI6,-1.08254078295,0.11608227949999901,2.3175,False,NM,0.0035489,225
mp-1111605,K2RbAuBr6,-1.2745533322,0.20428219100000003,0.0,True,FM,2.0162745,225
mp-1111136,K2RbAuCl6,-1.4986389902,0.2027230805,0.1648,True,FM,2.0000651,225
mp-1111442,K2RbAuF6,-2.250814167199999,0.16084468099999702,0.757799999999999,True,FM,2.0158522,225
mp-1184754,K2RbBi,-0.3317468155,0.007558438888888,0.13990000000000002,False,NM,0.0,225
mp-1110760,K2RbBiBr6,-1.5972092142,0.10253728391666701,3.4181,False,NM,0.004064799999999,225
mp-1110759,K2RbBiCl6,-1.8689340502,0.041728654333334,3.9638,False,NM,0.006661299999999,225
mp-1110675,K2RbBiF6,-2.823674599199999,0.09792249124999901,4.215899999999999,False,NM,0.0,225
mp-1110783,K2RbBiI6,-1.1964374551999999,0.1233832165,2.6959,False,NM,0.002215,225
mp-1110782,K2RbCeBr6,-2.037944424199999,0.11456923487500101,0.3159,True,FM,0.999734399999999,225
mp-1110758,K2RbCeCl6,-2.354184809199999,0.11540564112500101,0.3325,True,FM,1.0000401,225
mp-1110674,K2RbCeF6,-3.4017468592,0.122329016750001,0.0,True,FM,0.9731462,225
mp-1110781,K2RbCeI6,-1.574859577199999,0.11956801050000002,0.27939999999999904,True,FM,0.9997935,225
mp-1111385,K2RbCoF6,-2.662046084199999,0.038588154500000006,3.2015000000000002,False,NM,4.78e-05,225
mp-1111217,K2RbCrF6,-3.0395630662,0.05304934180000501,4.5029,True,FM,2.999799099999999,225
mp-1111215,K2RbDyCl6,-2.397108685366666,0.09296962475000001,4.5105,False,NM,0.0002859,225
mp-1111216,K2RbErCl6,-2.401909932199999,0.09491152150000001,4.5391,False,NM,0.0003536,225
mp-1111213,K2RbGaBr6,-1.59928143995,0.15479003799999802,2.3254,False,NM,0.0010972,225
mp-1111600,K2RbGaCl6,-1.912425430949999,0.132451712500001,3.5572,False,NM,0.0002868,225
mp-1111144,K2RbGaF6,-3.004221399949999,0.050965108,5.5929,False,NM,0.0007211,225
mp-1111285,K2RbGaI6,-1.15638535195,0.19395756324999802,0.9854,False,NM,0.002485599999999,225
mp-1111214,K2RbGdCl6,-2.388967057199999,0.094717834,3.2314,True,FM,7.0000399,225
mp-1111211,K2RbInBr6,-1.634905851866666,0.10392947150000001,2.5232,False,NM,0.0056212,225
mp-1111212,K2RbInCl6,-1.929434355866666,0.074851086249999,3.7137000000000002,False,NM,0.0003697,225
mp-1111441,K2RbInF6,-2.914890396866666,0.08081732725,5.1078,False,NM,0.0012828,225
mp-1111440,K2RbIrF6,-2.468909647199999,0.08001537650000301,2.2706,False,NM,0.0007361,225
mp-1111209,K2RbLuCl6,-2.404058914866666,0.050370249624999,4.5442,False,NM,0.00012109999999900002,225
mp-1111381,K2RbMnF6,-2.8627877729931033,0.095135112000002,0.0,True,FM,3.9998778,225
mp-1110757,K2RbMoBr6,-1.514152715199999,0.117668614687502,1.6014,True,FM,2.9960394999999993,225
mp-1110717,K2RbMoCl6,-1.8273822312,0.088022740718753,1.6332,True,FM,2.9978671,225
mp-1110666,K2RbMoF6,-2.887130868199999,0.05763444200000001,3.0563,True,FM,2.9997716,225
mp-1110780,K2RbMoI6,-1.0838156572,0.161523226583333,1.4308,True,FM,3.032706,225
mp-1111116,K2RbNbF6,-2.914047165199999,0.151890569150002,0.0,True,FM,1.9926082999999992,225
mp-1110779,K2RbNdBr6,-2.051648371949999,0.11660214625000001,3.690699999999999,False,NM,0.0016438,225
mp-1110756,K2RbNdCl6,-2.36959559595,0.11901395812500001,4.359500000000001,False,NM,0.0003628,225
mp-1110673,K2RbNdF6,-3.415484198949999,0.13168311300000102,5.2708,False,NM,0.002095,225
mp-1110778,K2RbNdI6,-1.588414449949999,0.11767705475000001,3.1287,False,NM,0.0031569999999990004,225
mp-1111117,K2RbPdF6,-2.409654364199999,0.10054069550000301,0.0,True,FM,1.0000619,225
mp-1110777,K2RbPrBr6,-2.046567233366666,0.12305213425000001,3.6885,False,NM,0.001568999999999,225
mp-1110755,K2RbPrCl6,-2.3619077303666662,0.12664496625000102,4.349600000000001,False,NM,0.000429099999999,225
mp-1110672,K2RbPrF6,-3.397970370366666,0.142444830500002,5.2136,False,NM,0.0247706,225
mp-1110776,K2RbPrI6,-1.586060660366666,0.12361652475000001,3.1256,False,NM,0.0005175,225
mp-1111432,K2RbRhF6,-2.559545177199999,0.051761628999999004,2.2056,False,NM,7.810000000000001e-05,225
mp-1111431,K2RbRuF6,-2.541730785199999,0.0537245635,0.0,True,FM,1.0021451,225
mp-976148,K2RbSb,-0.41193682800000003,0.010223454583333002,0.6879000000000001,False,NM,0.0,225
mp-1110754,K2RbSbBr6,-1.545023624199999,0.10074101208334,2.8383000000000003,False,NM,0.001518499999999,225
mp-1110716,K2RbSbCl6,-1.814903238199999,0.08909995575000201,3.363299999999999,False,NM,0.0091679,225
mp-1110671,K2RbSbF6,-2.793364536199999,0.116655193499998,3.5055,False,NM,0.0024785,225
mp-1110775,K2RbSbI6,-1.149575068199999,0.12419981049999901,2.3768000000000002,False,NM,0.002235699999999,225
mp-1111597,K2RbScBr6,-2.004903161699999,0.07189641366666501,3.2468,False,NM,5.4800000000000024e-05,225
mp-1111207,K2RbScCl6,-2.3422498927,0.071080271375,4.0698,False,NM,0.0,225
mp-1111114,K2RbScF6,-3.487620787699999,0.06553373833333201,5.8541,False,NM,0.000268,225
mp-1110753,K2RbTaBr6,-1.540148000933333,0.19962515872500303,0.0,True,FM,1.9978234,225
mp-1110715,K2RbTaCl6,-1.8662588599333332,0.20232739200000002,0.0,True,FM,1.9956098,225
mp-1110665,K2RbTaF6,-2.863375206933333,0.291656855106669,0.0,True,FM,1.790737,225
mp-1110774,K2RbTaI6,-1.094002849933333,0.213125166718752,0.0,True,FM,2.0065687,225
mp-1111205,K2RbTbCl6,-2.395406265866666,0.093768684666666,4.2001,False,NM,0.000139899999999,225
mp-1111427,K2RbTiF6,-3.227283342533334,0.068261897499996,0.0,True,FM,1.0000001,225
mp-1111203,K2RbTlBr6,-1.483526006533334,0.11126219575000001,1.5429,False,NM,0.0135155,225
mp-1111582,K2RbTlF6,-2.621871095533333,0.078423166374999,3.7342,False,NM,0.0018279,225
mp-1111204,K2RbTmCl6,-2.4033324822,0.090321217416666,4.516199999999999,False,NM,0.0002491,225
mp-1111380,K2RbVF6,-3.0060214212,0.12229631543750001,0.0,True,FM,1.9998851,225
mp-1110752,K2RbYBr6,-2.062595314199999,0.072547973999999,3.71,False,NM,0.0027282,225
mp-1110714,K2RbYCl6,-2.3916110282,0.09384156124999801,4.4925,False,NM,0.0003635,225
mp-1110670,K2RbYF6,-3.474911209199999,0.105954576249999,5.6436,False,NM,0.0009046999999990001,225
mp-1110773,K2RbYI6,-1.5887433532,0.10280876999999801,3.1008,False,NM,0.002628799999999,225
mp-23021,K2ReBr6,-1.335880026333332,0.0,0.9700000000000001,True,FM,3.0000001,225
mp-22947,K2ReCl6,-1.486913343888888,0.0,1.0776,True,FM,3.0,225
mp-1112258,K2RhAuF6,-2.064346536449999,0.17154666400000002,0.7098,False,NM,0.0001417,225
mp-1112257,K2RuAuF6,-2.03377602945,0.23191240100000002,0.0,True,FM,1.0160923,225
mp-23471,K2RuCl6,-1.600359513833331,0.0,0.0,True,FM,2.0000001,225
mp-1022,K2S,-1.247886656770833,0.0,2.3201,False,NM,0.0,225
mp-989587,K2SBrCl6,-1.119831494699999,0.11131338640625,0.0,False,NM,0.0059412,225
mp-1112418,K2SbAuBr6,-1.231971925449999,0.064811305649999,0.23800000000000002,False,NM,0.001234799999999,225
mp-1112067,K2SbAuCl6,-1.459792964449999,0.10504295895833501,0.35100000000000003,False,NM,0.0006611999999990001,225
mp-1111960,K2SbAuF6,-2.307818189449999,0.312363827249999,0.6938000000000001,False,NM,0.0009536999999990001,225
mp-1112064,K2SbAuI6,-0.894255460449999,0.085825823749998,0.0,False,NM,0.003350499999999,225
mp-1111998,K2ScAgBr6,-1.7599665481166662,0.006728700000000001,2.8359,False,NM,0.0007241,225
mp-1112448,K2ScAgCl6,-1.939350192416665,0.016061846333332002,3.248,False,NM,0.0002004,225
mp-1112275,K2ScAgF6,-3.171970405116666,0.026178685166668002,3.0351,False,NM,4.2400000000000014e-05,225
mp-1112086,K2ScAgI6,-1.299872320116666,0.05105371549999901,2.1618,False,NM,0.001856,225
mp-1111993,K2ScAuBr6,-1.642299711949999,0.078501929899999,1.7408000000000001,False,NM,0.001256199999999,225
mp-1112065,K2ScAuCl6,-1.9481863519499991,0.116950021694443,2.0353,False,NM,0.001448399999999,225
mp-1112256,K2ScAuF6,-2.982572055949999,0.18906553716666602,1.583699999999999,False,NM,0.0005796,225
mp-1112062,K2ScAuI6,-1.20918381895,0.10289488874999801,1.131,False,NM,0.002191,225
mp-1112159,K2ScCuCl6,-1.903441415916661,0.038786515333338004,1.877199999999999,False,NM,0.0009876,225
mp-1112245,K2ScCuF6,-3.147014890949999,0.096854175874996,1.2408000000000001,False,NM,0.001371,225
mp-1111989,K2ScHgBr6,-1.6797311642000001,0.09285921150000001,0.0,False,NM,0.008174599999999001,225
mp-1111990,K2ScHgCl6,-1.824107541166664,0.141866873333338,0.0,True,FM,0.6603468,225
mp-1111931,K2ScHgF6,-3.0760175672,0.15968353466666502,0.0,True,FM,0.9731021,225
mp-1112029,K2ScHgI6,-1.241310640200001,0.10477675649999801,0.0,False,NM,0.6625179,225
mp-1112015,K2ScInBr6,-1.8008301506166662,0.020903155000000003,2.3286,False,NM,0.000117899999999,225
mp-1112180,K2ScInCl6,-2.121865569616666,0.056954582645831,2.5251,False,NM,0.000609,225
mp-1112179,K2ScInF6,-3.262885409616666,0.086087959722229,3.5404,False,NM,0.000250699999999,225
mp-1112016,K2ScInI6,-1.341102198616666,0.046755988999999006,1.9864000000000002,False,NM,2.3700000000000003e-05,225
mp-1111193,K2ScTlBr6,-1.8382227062833332,0.026752704500000002,3.0604,False,NM,2.44e-05,225
mp-1111134,K2ScTlCl6,-2.161159312283334,0.059448680833330006,3.397199999999999,False,NM,0.0,225
mp-1111416,K2ScTlF6,-3.290836186283334,0.054021585916665005,4.6328,False,NM,5.4100000000000014e-05,225
mp-8426,K2Se,-1.2399382956145821,0.0,2.0925,False,NM,0.0,225
mp-23036,K2SeBr6,-1.299198075204859,0.0,1.6978,False,NM,0.0,225
mp-3042,K2SiF6,-3.425675350499996,0.0027198972222190003,7.2234,False,NM,0.0,225
mp-1112087,K2SmAgCl6,-1.99440292225,0.059257014749999004,3.5685000000000002,False,NM,7.280000000000002e-05,225
mp-1112063,K2SmAuCl6,-1.9821492829499991,0.160545856916666,2.2805,False,NM,0.0004436,225
mp-1112218,K2SmCuCl6,-1.9575590557499971,0.082916773749999,2.3789,False,NM,0.0001684,225
mp-1021516,K2Sn,0.090021850166667,0.277353742583332,0.0,True,FM,1.995538799999999,225
mp-568333,K2SnBr6,-1.5280859805,0.016185831111111,1.1772,False,NM,0.0,225
mp-23499,K2SnCl6,-1.851916668833332,0.007788433333332001,2.4712,False,NM,0.0,225
mp-1205960,K2SnF6,-2.9689455932777733,0.049390942222217,5.3443,False,NM,0.0,225
mp-1180839,K2SnN6,1.927773896722222,2.059647748148148,0.0,True,FM,12.001061,225
mp-1112085,K2TaAgBr6,-1.285183975349999,0.20148940313333202,0.0,True,FM,1.9989408,225
mp-1112083,K2TaAgCl6,-1.597737288349999,0.22658594614583402,0.0,True,FM,1.9996200000000002,225
mp-1110857,K2TaAgF6,-2.656148408349999,0.38397992188667,0.3159,False,NM,0.0005748999999990001,225
mp-1110948,K2TaAgI6,-0.8605439233499991,0.20096598271875102,0.0,True,FM,1.9983066999999992,225
mp-1112417,K2TaAuF6,-2.7032767431833333,0.34078699533877505,1.169,False,NM,8.580000000000004e-05,225
mp-31363,K2TaCl6,-2.001392053537037,0.025633762569444003,0.0,True,FM,0.999997599999999,225
mp-1112217,K2TaCuBr6,-1.2404970571833331,0.24617632129999903,0.0,True,FM,1.999114699999999,225
mp-1112377,K2TaCuCl6,-1.564795610183333,0.25952762431250004,0.0,True,FM,2.0000541,225
mp-1110903,K2TaCuI6,-0.8036536641833331,0.244933077171875,0.0,True,FM,1.989798,225
mp-1112194,K2TaHgF6,-2.771948624433334,0.268179705803335,0.0,True,FM,1.0005316,225
mp-1207114,K2TaNbO6,-2.954898269183333,0.006959499999997,1.702799999999999,False,NM,4.1e-06,225
mp-1111415,K2TaTlF6,-2.668923663516667,0.371204666720001,0.0,True,FM,1.9602258,225
mp-1112446,K2TbAgCl6,-2.135362085283332,0.04306329800000001,3.6214,False,NM,0.0002069,225
mp-1112060,K2TbAuCl6,-1.996172140116665,0.14551094791666602,1.9175,False,NM,0.0003143,225
mp-1111991,K2TbCuCl6,-1.9724441962499952,0.067974504000002,2.4713,False,NM,0.000429099999999,225
mp-1206472,K2TcBr6,-1.40517262772222,0.0,1.0368,True,FM,3.0000001,225
mp-27632,K2TcCl6,-1.5662490636111102,0.0,1.142599999999999,True,FM,3.0000001,225
mp-1747,K2Te,-1.222004715833333,0.0,2.141,False,NM,0.0,225
mp-23505,K2TeBr6,-1.36985561124074,0.023163146111108,1.9579,False,NM,0.0011669,225
mp-569149,K2TeCl6,-1.356825606944444,0.0,2.5557,False,NM,0.0,225
mp-1112274,K2TiAgF6,-2.909961143949999,0.270896172833332,0.0,True,FM,0.9871819,225
mp-1111957,K2TiAuF6,-2.8077236937833323,0.37313362299999503,0.0,True,FM,0.9619369,225
mp-27839,K2TiCl6,-2.179674765314814,0.0,2.0826000000000002,False,NM,0.0,225
mp-1112244,K2TiCuF6,-2.889731656783333,0.291125659999998,0.0,True,FM,0.998382099999999,225
mp-1112360,K2TiHgF6,-3.041700829033333,0.139156487749999,2.1789,False,NM,0.0004453,225
mp-1111414,K2TiTlF6,-3.031086850116667,0.14977046666666302,0.0,True,FM,1.0009402,225
mp-1205822,K2Tl6Tc,0.17037398672221601,0.24532013023809301,0.0,True,FM,1.310069299999999,225
mp-1112445,K2TlAgBr6,-1.27055994995,0.050435184749999,0.0,False,NM,0.002973699999999,225
mp-1112081,K2TlAgCl6,-1.50777397895,0.013921837000002001,0.0,False,NM,0.0004474,225
mp-1112272,K2TlAgF6,-2.315529212949999,0.030782685958334003,0.4485,False,NM,0.0001952,225
mp-1112078,K2TlAgI6,-0.917855138949999,0.093573928,0.0,False,NM,8.2e-05,225
mp-1111589,K2TlAsBr6,-1.328670382533333,0.05293623100000001,1.5711,False,NM,0.001071,225
mp-1111588,K2TlAsCl6,-1.576626199533334,0.057549566749999004,1.904999999999999,False,NM,0.0003615,225
mp-1111426,K2TlAsF6,-2.523982153533333,0.058069127875002007,2.726,False,NM,0.0013468999999990002,225
mp-1111200,K2TlAsI6,-0.9592125675333341,0.073469327499999,0.8611000000000001,False,NM,0.0210442,225
mp-1111585,K2TlAuBr6,-1.212922075783333,0.07958377825,0.0,False,NM,0.0001363,225
mp-1112414,K2TlAuCl6,-1.420444628783334,0.085348961999998,0.0,False,NM,0.0005924999999990001,225
mp-1111378,K2TlAuF6,-2.145717286783333,0.167588642694446,0.0,False,NM,0.002323399999999,225
mp-1112333,K2TlAuI6,-0.894728185783334,0.094231981,0.0,False,NM,0.0003586,225
mp-1111569,K2TlBiF6,-2.632752007783334,0.106416173999996,3.1816,False,NM,0.011623,225
mp-1111102,K2TlCoF6,-2.472797150783334,0.07747574124999701,2.5182,False,NM,5.05e-05,225
mp-1111376,K2TlCrF6,-2.842726659783334,0.036224264499996,4.0416,True,FM,2.9999533,225
mp-1112216,K2TlCuBr6,-1.269294586783333,0.045654082124999,0.0,False,NM,0.0052844,225
mp-1111969,K2TlCuCl6,-1.518696923783333,0.031308645750002,0.0,False,NM,0.0062607,225
mp-1112168,K2TlCuF6,-2.377329549783334,0.047405288854168004,0.0,True,FM,0.202895699999999,225
mp-1111373,K2TlFeF6,-2.6736153767833333,0.042434784374995003,2.5608,True,FM,4.9998415,225
mp-1111137,K2TlGaBr6,-1.446393787533333,0.1294260035,1.6,False,NM,0.0005233,225