material_id,formula,formation_energy,ehull,band_gap,is_magnetic_x,magnetic_ordering,total_magnetization_x,spacegroup,heusler_type,is_magnetic_y,total_magnetization_y
mp-862610,LiHfIr2,-0.6952293808333351,0.0,0.0,False,NM,3.399999999999998e-06,225,full,False,3.399999999999998e-06
mp-867119,LiHfPd2,-0.622948171666667,0.013918019128791,0.0,False,NM,3.09e-05,225,full,False,3.09e-05
mp-867834,LiHfPt2,-1.022987341666663,0.0,0.0,False,NM,7e-07,225,full,False,7e-07
mp-867148,LiHfRh2,-0.770482331666666,0.0,0.0,False,NM,1.4e-06,225,full,False,1.4e-06
mp-631309,LiHg2Os,0.6884562977083271,0.882870438749996,0.0,False,NM,0.000715199999999,216,full,False,0.000715199999999
mp-861896,LiHg2Pd,-0.313890302083337,0.0,0.0,False,NM,1.67e-05,225,full,False,1.67e-05
mp-862737,LiHgPd2,-0.352852471458333,0.0,0.0,False,NM,2.2e-06,225,full,False,2.2e-06
mp-973841,LiHo2Al,-0.247774739166665,0.010715533333332,0.0,False,NM,6.790000000000001e-05,225,full,False,6.790000000000001e-05
mp-867145,LiHo2Ga,-0.30585662770833,0.026632636354167,0.0,False,NM,0.000362299999999,225,full,False,0.000362299999999
mp-1185328,LiHo2In,-0.246871437499995,0.013750826875001,0.0,False,NM,0.0094472,225,full,False,0.0094472
mp-867913,LiHo2Ir,-0.59292876833333,0.0,0.0,False,NM,1.5600000000000003e-05,225,full,False,1.5600000000000003e-05
mp-867269,LiHo2Os,-0.299264179166666,0.0,0.0,False,NM,6.4e-06,225,full,False,6.4e-06
mp-867267,LiHo2Pt,-0.7629036908333291,0.039627764166667,0.0,False,NM,0.0545255,225,full,False,0.0545255
mp-865954,LiHo2Rh,-0.493070855833329,0.011670419345239,0.0,False,NM,4e-07,225,full,False,4e-07
mp-865959,LiHo2Ru,-0.295443145833328,0.0,0.0,False,NM,2.499999999999999e-06,225,full,False,2.499999999999999e-06
mp-867289,LiHo2Tc,-0.058889215208335,0.026427416041666,0.0,False,NM,0.0051123,225,full,False,0.0051123
mp-862722,LiHoAu2,-0.776720307916662,0.009861843437505,0.0,False,NM,5.5e-06,225,full,False,5.5e-06
mp-861874,LiHoHg2,-0.502292001666667,0.0,0.0,False,NM,1e-07,225,full,False,1e-07
mp-862676,LiHoIn2,-0.362932850416664,0.009626300312499,0.0,False,NM,3.1e-06,225,full,False,3.1e-06
mp-973831,LiHoPd2,-0.72152507914393,0.028434986500002,0.0,False,NM,0.0015141,225,full,False,0.0015141
mp-973826,LiHoSn2,-0.397571479583331,0.144825077500001,0.0,False,NM,0.001047999999999,225,full,False,0.001047999999999
mp-862677,LiHoTl2,-0.38589856041667,0.0,0.0,False,NM,2e-07,225,full,False,2e-07
mp-1185379,LiIn2Ag,-0.204197270416663,0.016469542500001,0.0,False,NM,0.0005463,225,full,False,0.0005463
mp-31208,LiIn2Ir,-0.419264766666664,0.0,0.0,False,NM,7.2e-06,225,full,False,7.2e-06
mp-1185381,LiIn2Ni,-0.273389036666664,0.017648548000014,0.0,False,NM,3e-07,225,full,False,3e-07
mp-20801,LiIn2Pd,-0.519555554166665,0.0,0.0,False,NM,0.0,225,full,False,0.0
mp-20265,LiIn2Pt,-0.602446651666664,0.0,0.0,False,NM,1.1e-06,225,full,False,1.1e-06
mp-13396,LiIn2Rh,-0.5004476091666661,0.0,0.0,False,NM,1.5e-06,225,full,False,1.5e-06
mp-672340,LiIn2Ru,-0.230929496499999,0.037866556666667,0.0,False,NM,8.5e-06,225,full,False,8.5e-06
mp-567787,LiInAg2,-0.230211929166664,0.0,0.0,False,NM,2.2e-06,225,full,False,2.2e-06
mp-867287,LiInAu2,-0.458102386666666,0.0,0.0,False,NM,0.0,225,full,False,0.0
mp-16343,LiInGe,-0.224599848333332,0.0,0.0,False,NM,5e-07,216,half,False,5e-07
mp-1185367,LiInHg2,-0.211375267916668,0.0,0.0,False,NM,1.2e-06,225,full,False,1.2e-06
mp-867926,LiInPd2,-0.6129045441666641,0.0,0.0,False,NM,7.099999999999996e-06,225,full,False,7.099999999999996e-06
mp-862774,LiInPt2,-0.633030456666666,0.0,0.0,False,NM,9e-07,225,full,False,9e-07
mp-862775,LiInRh2,-0.343516731666667,0.011111783333337,0.0,False,NM,5.4400000000000014e-05,225,full,False,5.4400000000000014e-05
mp-1100436,LiInSi,0.170302643333333,0.337759978333331,0.0,False,NM,0.000138599999999,216,half,False,0.000138599999999
mp-1222280,LiInSn,-0.209241038333331,0.008003621111112,0.0,False,NM,8e-07,216,half,False,8e-07
mp-568466,LiInSn,-0.179724341666665,0.037520317777778,0.0,False,NM,0.001559799999999,216,half,False,8e-07
mp-631269,LiIrRh,0.5839936288888811,0.7929151483333141,0.0,False,NM,0.005910899999999,216,half,False,0.005910899999999
mp-973874,LiLa2Al,-0.218679961666666,0.027773353645834,0.0,False,NM,3.2800000000000004e-05,225,full,False,3.2800000000000004e-05
mp-867806,LiLa2Ir,-0.378471975833335,0.089247042083333,0.0,False,NM,0.0006326,225,full,False,0.0006326
mp-867813,LiLa2Os,-0.055609138333334,0.0457407775,0.0,False,NM,2.5200000000000003e-05,225,full,False,2.5200000000000003e-05
mp-867905,LiLa2Ru,-0.122461390833334,0.078111384523809,0.0,False,NM,0.0036347,225,full,False,0.0036347
mp-1185375,LiLaAu2,-0.672893384583334,0.010424881250001,0.0,False,NM,3.9900000000000014e-05,225,full,False,3.9900000000000014e-05
mp-861624,LiLaHg2,-0.5219357516666671,0.0,0.0,False,NM,2.3800000000000003e-05,225,full,False,2.3800000000000003e-05
mp-1185376,LiLaTl2,-0.356116331250005,0.0,0.0,False,NM,7e-07,225,full,False,7e-07
mp-973058,LiLu2Al,-0.232217209999998,0.004134654999997,0.0,False,NM,0.000213299999999,225,full,False,0.000213299999999
mp-1185371,LiLu2Au,-0.522471543541669,0.060609357916668,0.0,False,NM,0.000368899999999,225,full,False,0.000368899999999
mp-1185373,LiLu2Co,-0.136676321666668,0.032528675249998,0.0,False,NM,0.0063427,225,full,False,0.0063427
mp-976596,LiLu2Ga,-0.361883632083333,0.038452573854165,0.0,False,NM,0.000364299999999,225,full,False,0.000364299999999
mp-976595,LiLu2In,-0.308462328749989,0.024501412307692,0.0,False,NM,0.0001786,225,full,False,0.0001786
mp-861964,LiLu2Ir,-0.672485679166666,0.0,0.0,False,NM,3.299999999999999e-06,225,full,False,3.299999999999999e-06
mp-861963,LiLu2Os,-0.322496394166665,0.0,0.0,False,NM,4.1e-06,225,full,False,4.1e-06
mp-973286,LiLu2Pd,-0.486121329999999,0.019585576666667,0.0,False,NM,1.3e-05,225,full,False,1.3e-05
mp-1185372,LiLu2Pt,-0.8167149824999951,0.028129752083337,0.0,False,NM,0.0009925,225,full,False,0.0009925
mp-1185405,LiLu2Re,0.002349187708333,0.121944681979168,0.0,False,NM,1.7500000000000002e-05,225,full,False,1.7500000000000002e-05
mp-977405,LiLu2Rh,-0.597598847499998,0.0,0.0,False,NM,5.4100000000000014e-05,225,full,False,5.4100000000000014e-05
mp-977393,LiLu2Ru,-0.361550819166668,0.0,0.0,False,NM,7e-07,225,full,False,7e-07
mp-977386,LiLu2Tc,-0.082232834999999,0.051792208177086,0.0,False,NM,0.0001928,225,full,False,0.0001928
mp-867903,LiLuAu2,-0.7881009908333281,0.0,0.0,False,NM,9.220000000000005e-05,225,full,False,9.220000000000005e-05
mp-976426,LiLuHg2,-0.470808829583333,0.0,0.0,False,NM,1.899999999999999e-06,225,full,False,1.899999999999999e-06
mp-1185369,LiLuIn2,-0.445900235833331,0.010025182500015,0.0,False,NM,2.6e-06,225,full,False,2.6e-06
mp-977374,LiLuPd2,-0.7595399033333301,0.009879410749999,0.0,False,NM,0.0,225,full,False,0.0
mp-861652,LiLuPt2,-1.059402650833327,0.030228821363664,0.0,False,NM,9.8e-06,225,full,False,9.8e-06
mp-1185393,LiLuRh2,-0.621082885833327,0.023328457500003,0.0,False,NM,0.000156,225,full,False,0.000156
mp-1185385,LiLuTl2,-0.279264756666673,0.0,0.0,False,NM,4.299999999999999e-06,225,full,False,4.299999999999999e-06
mp-864598,LiMg2Ag,-0.198029603749999,0.0,0.0,False,NM,5.7e-06,225,full,False,5.7e-06
mp-1185365,LiMg2Au,-0.460586658333332,0.0,0.0,False,NM,6.599999999999999e-06,225,full,False,6.599999999999999e-06
mp-1185359,LiMg2Cd,-0.136248555833332,0.0,0.0,False,NM,7e-07,225,full,False,7e-07
mp-30648,LiMg2Ga,-0.160652872708333,0.005975480750001,0.0,False,NM,0.0005154,225,full,False,0.0005154
mp-30079,LiMg2Ge,-0.135577294583332,0.119316110624999,0.0,False,NM,0.023445399999999,225,full,False,0.023445399999999
mp-864630,LiMg2Hg,-0.241065378958335,0.0,0.0,False,NM,7.8e-06,225,full,False,7.8e-06
mp-1185366,LiMg2In,-0.128037989999999,0.018009207916666,0.0,False,NM,3.299999999999999e-06,225,full,False,3.299999999999999e-06
mp-1232420,LiMg2Ir,-0.339763440833333,0.0,0.0,False,NM,8e-07,225,full,False,8e-07
mp-1185377,LiMg2Ni,-0.104792425833332,0.011791346631944,0.0,False,NM,4.4e-06,225,full,False,4.4e-06
mp-1206745,LiMg2Pb,-0.081250120833332,0.060438929374998,0.0,False,NM,0.0067496,225,full,False,0.0067496
mp-977380,LiMg2Pd,-0.459120258333332,0.0,0.0,False,NM,1.54e-05,225,full,False,1.54e-05
mp-864614,LiMg2Pt,-0.613423705833333,0.0,0.0,False,NM,0.0,225,full,False,0.0
mp-864601,LiMg2Rh,-0.364491183333332,0.0,0.0,False,NM,5e-07,225,full,False,5e-07
mp-1067042,LiMg2Si,-0.015038488333332,0.135963621562499,0.0,False,NM,0.010019799999999,225,full,False,0.010019799999999
mp-30759,LiMg2Tl,-0.086211086666668,0.0275225875,0.0,False,NM,0.001971,225,full,False,0.001971
mp-864762,LiMg2Zn,-0.122345653333332,0.0,0.0,False,NM,4e-06,225,full,False,4e-06
mp-1185364,LiMgAg2,-0.227260540416664,0.0,0.0,False,NM,1.21e-05,225,full,False,1.21e-05
mp-12558,LiMgAs,-0.8998631680555551,0.0,1.372299999999999,False,NM,0.0,216,half,False,0.0
mp-977418,LiMgAu2,-0.5792043545833331,0.0,0.0,False,NM,9.499999999999994e-06,225,full,False,9.499999999999994e-06
mp-570213,LiMgBi,-0.396783942777777,0.0,0.3587,False,NM,0.0,216,half,False,0.0
mp-1185358,LiMgCd2,-0.159461544583332,0.004020874166664,0.0,False,NM,1e-07,225,full,False,1e-07
mp-1185363,LiMgHg2,-0.300294600833337,0.0,0.0,False,NM,8.099999999999999e-06,225,full,False,8.099999999999999e-06
mp-1185368,LiMgIn2,-0.161156135416665,0.002443238749999,0.0,False,NM,1.5e-06,225,full,False,1.5e-06
mp-1222290,LiMgIn2,-0.077964025416664,0.085635348749999,0.0,False,NM,0.0005777,216,full,False,1.5e-06
mp-37906,LiMgN,-0.8117910368055551,0.0,2.4462,False,NM,0.0,216,half,False,0.0
mp-10178,LiMgP,-0.400808674325396,0.350488743333333,0.0,False,NM,0.0,216,half,False,0.0
mp-36111,LiMgP,-0.75129741765873,0.0,1.7113,False,NM,0.0,216,half,False,0.0
mp-961683,LiMgP,-0.411192047658729,0.34010537,1.935,False,NM,0.000530099999999,216,half,False,0.0
mp-1185374,LiMgPb2,-0.168886152083332,0.0,0.0,False,NM,1e-06,225,full,False,1e-06
mp-977399,LiMgPd2,-0.616924229583331,0.0,0.0,False,NM,1e-07,225,full,False,1e-07
mp-1100424,LiMgSb,-0.435397929444444,0.180813566666665,1.1328,False,NM,0.000969399999999,216,half,False,0.000969399999999
mp-1207082,LiMgSb,-0.616211496111109,0.0,1.4438,False,NM,0.0,216,half,False,0.000969399999999
mp-864597,LiMgTl2,-0.138287058750003,0.0,0.0,False,NM,4.999999999999999e-06,225,full,False,4.999999999999999e-06
mp-1008911,LiMnAs,-0.287034042921456,0.145942876340997,0.0,True,FM,4.5069881,216,half,True,4.5069881
mp-1185360,LiMnIr2,-0.193759082816092,0.018078454999999,0.0,True,FM,2.0674133,225,full,True,2.0674133
mp-861629,LiMnPd2,-0.365073502816093,0.0,0.0,True,FM,4.630896,225,full,True,4.630896
mp-861658,LiMnPt2,-0.480182097816094,0.0,0.0,True,FM,4.5844638,225,full,True,4.5844638
mp-977563,LiNbIr2,-0.487709508333333,0.0,0.0,False,NM,3e-07,225,full,False,3e-07
mp-864631,LiNbRh2,-0.442245220833333,0.0,0.0,False,NM,9e-07,225,full,False,9e-07
mp-1185361,LiNbRu2,-0.100577514166666,0.107448528541667,0.0,False,NM,1.42e-05,225,full,False,1.42e-05
mp-866017,LiNd2Al,-0.219571222916666,0.008795741770832,0.0,False,NM,3.94e-05,225,full,False,3.94e-05
mp-865578,LiNd2Ga,-0.338958590416666,0.020288928854167,0.0,False,NM,4.42e-05,225,full,False,4.42e-05
mp-865808,LiNd2Ir,-0.47049519608333,0.022999046916662,0.0,False,NM,0.000681899999999,225,full,False,0.000681899999999
mp-977391,LiNd2Os,-0.114770347916664,0.010008829114589,0.0,False,NM,2.05e-05,225,full,False,2.05e-05
mp-1185389,LiNd2Rh,-0.341829567083332,0.060474459166664,0.0,False,NM,0.000448699999999,225,full,False,0.000448699999999
mp-977539,LiNd2Ru,-0.151160819166666,0.019966269348955,0.0,False,NM,0.0001318,225,full,False,0.0001318
mp-1185397,LiNdAu2,-0.663592727708331,0.012961923749999,0.0,False,NM,2e-06,225,full,False,2e-06
mp-861660,LiNdHg2,-0.5177201447916671,0.0,0.0,False,NM,5.299999999999997e-06,225,full,False,5.299999999999997e-06
mp-1185415,LiNdIn2,-0.515515840979169,0.0360087140625,0.0,False,NM,1.0800000000000002e-05,225,full,False,1.0800000000000002e-05
mp-12719,LiNdSn,-0.497947671944443,0.164628739999999,0.0,False,NM,0.0006945,216,half,False,0.0006945
mp-866019,LiNdTl2,-0.335290086875002,0.0,0.0,False,NM,1e-06,225,full,False,1e-06
mp-1185390,LiNdZn2,-0.266042885208333,0.009899585416667,0.0,False,NM,7e-07,225,full,False,7e-07
mp-16349,LiNi2Ge,-0.362563197083333,0.0,0.0,False,NM,1.3e-06,225,full,False,1.3e-06
mp-1185260,LiNi2Sb,-0.281255136666667,0.054190885833333,0.0,False,NM,3.9e-05,225,full,False,3.9e-05
mp-13915,LiNi2Sn,-0.273924724583333,0.0,0.0,False,NM,6.099999999999997e-06,225,full,False,6.099999999999997e-06
mp-977583,LiNpIr2,-0.399702506770836,0.188911166666663,0.0,True,FM,0.0758153,225,full,True,0.0758153
mp-1185270,LiNpRh2,-0.553328041354163,0.0,0.0,True,FM,3.4683938,225,full,True,3.4683938
mp-1185267,LiNpRu2,0.097170501979164,0.097170501979164,0.0,False,NM,0.0114529,225,full,False,0.0114529
mp-865046,LiPaPt2,-0.860604424166666,0.066232767142849,0.0,False,NM,0.0045,225,full,False,0.0045
mp-865029,LiPaRu2,-0.353667081666671,0.0,0.0,False,NM,0.0,225,full,False,0.0
mp-1185262,LiPd2Au,-0.292139246249995,0.025279509999997,0.000199999999999,False,NM,5.799999999999999e-06,225,full,False,5.799999999999999e-06
mp-30763,LiPd2Pb,-0.419870908333332,0.0,0.0,False,NM,1e-06,225,full,False,1e-06
mp-861930,LiPdAu2,-0.354512704166666,0.018978817500002,0.0,False,NM,8e-07,225,full,False,8e-07
mp-631333,LiPdW2,0.786284133333335,0.9946117150000012,0.0,False,NM,6.230000000000002e-05,225,full,False,6.230000000000002e-05
mp-861948,LiPm2Al,-0.229265820416664,0.004703284999997,0.0,False,NM,1e-06,225,full,False,1e-06
mp-1185413,LiPm2Co,0.090516054583336,0.090516054583336,0.0,False,NM,0.0001436,225,full,False,0.0001436
mp-861947,LiPm2Ga,-0.350889585416663,0.0,0.0,False,NM,0.0002449,225,full,False,0.0002449
mp-861955,LiPm2Ge,-0.426732410833333,0.0,0.0,False,NM,2.3800000000000003e-05,225,full,False,2.3800000000000003e-05
mp-861956,LiPm2Ir,-0.5049128554166621,0.0,0.0,False,NM,6.51e-05,225,full,False,6.51e-05
mp-862841,LiPm2Os,-0.155809897916668,0.0,0.0,False,NM,6.15e-05,225,full,False,6.15e-05
mp-1185398,LiPm2Pb,-0.321793639583332,0.006430284999998,0.0,False,NM,0.0017928,225,full,False,0.0017928
mp-862842,LiPm2Pt,-0.614724197916665,0.0,0.0,False,NM,0.0003072,225,full,False,0.0003072
mp-863673,LiPm2Rh,-0.400373985416667,0.004771985833329,0.0,False,NM,6.06e-05,225,full,False,6.06e-05
mp-863675,LiPm2Ru,-0.186295189166667,0.0,0.0,False,NM,7.18e-05,225,full,False,7.18e-05
mp-863697,LiPm2Si,-0.337434707083334,0.0,0.0,False,NM,3.03e-05,225,full,False,3.03e-05
mp-1185399,LiPm2Sn,-0.448441385833334,0.0,0.0,False,NM,0.000131999999999,225,full,False,0.000131999999999
mp-862926,LiPmAu2,-0.729600761041666,0.0,0.0,False,NM,4.1e-06,225,full,False,4.1e-06
mp-1185409,LiPmGa2,-0.493660411041666,0.0,0.0,False,NM,4e-07,225,full,False,4e-07
mp-862927,LiPmHg2,-0.522510124791665,0.0,0.0,False,NM,5e-07,225,full,False,5e-07
mp-1185484,LiPmIn2,-0.510110018541666,0.0,0.0,False,NM,2.4e-06,225,full,False,2.4e-06
mp-862928,LiPmTl2,-0.427448618541667,0.0,0.0,False,NM,1.5e-06,225,full,False,1.5e-06
mp-983444,LiPmZn2,-0.269209558541666,0.0,0.0,False,NM,5.9e-06,225,full,False,5.9e-06
mp-1185391,LiPr2Al,-0.206799297499998,0.014472406458335,0.0,False,NM,2.07e-05,225,full,False,2.07e-05
mp-1185403,LiPr2Ga,-0.324717272499999,0.025432894236111,0.0,False,NM,4.85e-05,225,full,False,4.85e-05
mp-1185396,LiPr2Ir,-0.423966628791657,0.033435916791667,0.0,False,NM,0.0013262,225,full,False,0.0013262
mp-977570,LiPr2Os,-0.062683129999999,0.025728106692707,0.0,False,NM,8.280000000000002e-05,225,full,False,8.280000000000002e-05
mp-1185400,LiPr2Rh,-0.305659706666666,0.070666970249999,0.0,False,NM,0.0002061,225,full,False,0.0002061
mp-861661,LiPr2Ru,-0.119812463363093,0.023623264791662,0.0,False,NM,0.0083112,225,full,False,0.0083112
mp-1185407,LiPrAu2,-0.648446831249999,0.016619845624999,0.0,False,NM,2.6600000000000003e-05,225,full,False,2.6600000000000003e-05
mp-865738,LiPrHg2,-0.510180438333328,0.0,0.0,False,NM,2e-07,225,full,False,2e-07
mp-12718,LiPrSn,-0.497527113333333,0.158216898749999,0.0,False,NM,4.13e-05,216,half,False,4.13e-05
mp-865709,LiPrTl2,-0.423108754583338,0.000152907916671,0.0,False,NM,6e-07,225,full,False,6e-07
mp-1185408,LiPrZn2,-0.259889301249999,0.006913966666667,0.0,False,NM,9.3e-06,225,full,False,9.3e-06
mp-861663,LiRh2Pb,-0.237758358333333,0.0,0.0,False,NM,1.16e-05,225,full,False,1.16e-05
mp-861666,LiRu2W,-0.061894856666668,0.0,0.0,False,NM,9.199999999999997e-06,225,full,False,9.199999999999997e-06
mp-12564,LiSbAu,-0.323932655202019,0.104817015277777,0.0,False,NM,2.32e-05,216,half,False,2.32e-05
mp-861736,LiSbPd2,-0.627883106666665,0.0,0.0,False,NM,0.0,225,full,False,0.0
mp-861667,LiSbRh2,-0.632197939166665,0.0,0.0,False,NM,2.15e-05,225,full,False,2.15e-05
mp-864772,LiSc2Au,-0.473255859166666,0.063928917083334,0.0,False,NM,1.699999999999999e-06,225,full,False,1.699999999999999e-06
mp-1185424,LiSc2Ga,-0.369207619166665,0.028996866458333,0.0,False,NM,0.4645041,225,full,False,0.4645041
mp-861616,LiSc2Ir,-0.6665603858333321,0.0,0.0,False,NM,3e-07,225,full,False,3e-07
mp-862887,LiSc2Os,-0.33092544833333,0.0,0.0,False,NM,2.86e-05,225,full,False,2.86e-05
mp-1185433,LiSc2Pd,-0.445031289895833,0.049504774166667,0.0,False,NM,3.0000000000000004e-05,225,full,False,3.0000000000000004e-05
mp-865444,LiSc2Pt,-0.7343031858333331,0.0,0.0,False,NM,1e-07,225,full,False,1e-07
mp-865793,LiSc2Rh,-0.5495435108333321,0.0,0.0,False,NM,2.03e-05,225,full,False,2.03e-05
mp-865795,LiSc2Ru,-0.364506258333332,0.0,0.0,False,NM,2.2300000000000003e-05,225,full,False,2.2300000000000003e-05
mp-865936,LiSc2Tc,-0.122817977083333,0.0,0.0,False,NM,1.699999999999999e-06,225,full,False,1.699999999999999e-06
mp-862815,LiScAu2,-0.730636067916666,0.0,0.0,False,NM,1.5e-06,225,full,False,1.5e-06
mp-863659,LiScHg2,-0.438690244166668,0.0,0.0,False,NM,7.4e-06,225,full,False,7.4e-06
mp-1185454,LiScIn2,-0.437372710416665,0.027174303749994,0.0,False,NM,1.3e-06,225,full,False,1.3e-06
mp-865184,LiScPd2,-0.7187320929166651,0.0,0.0,False,NM,1e-07,225,full,False,1e-07
mp-865228,LiScPt2,-0.962303979583333,0.0,0.0,False,NM,6.190000000000001e-05,225,full,False,6.190000000000001e-05
mp-1185444,LiScRh2,-0.593898397083332,0.016211574999999,0.0,False,NM,4.8e-06,225,full,False,4.8e-06
mp-962070,LiScSi,0.058109410555555,0.595592451190474,0.444999999999999,False,NM,0.0005487,216,half,False,0.0005487
mp-1100438,LiScSn,-0.07124034111111,0.479846485666665,0.3626,False,NM,0.0002407,216,half,False,0.0002407
mp-865231,LiScTl2,-0.311142960416667,0.0,0.0,False,NM,4.1e-06,225,full,False,4.1e-06
mp-1185425,LiSiAg2,-0.092911594166666,0.031321484999998,0.0,False,NM,0.0,225,full,False,0.0
mp-1211042,LiSiAg2,0.022411660833334,0.146644739999999,0.0,False,NM,0.0001982,216,full,False,0.0
mp-1100392,LiSiB,-0.138751264166666,0.049326017329748,0.285299999999999,False,NM,0.0,216,half,False,0.0
mp-865933,LiSiIr2,-0.6974885683333311,0.0,0.0,False,NM,0.0,225,full,False,0.0
mp-10181,LiSiNi2,-0.487065033333332,0.0,0.0,False,NM,1.23e-05,225,full,False,1.23e-05
mp-864997,LiSiPd2,-0.6969589833333321,0.0,0.0,False,NM,0.0,225,full,False,0.0
mp-1185419,LiSiPt2,-0.7072630858333261,0.0,0.0,False,NM,1.3e-06,225,full,False,1.3e-06
mp-867902,LiSiRh2,-0.8362333983333331,0.0,0.0,False,NM,4e-07,225,full,False,4e-07
mp-865838,LiSiRu2,-0.352916888333333,0.0,0.0,False,NM,0.004876399999999,225,full,False,0.004876399999999
mp-1185458,LiSm2Al,-0.229923601666666,0.006355630052087,0.0,False,NM,0.0001639,225,full,False,0.0001639
mp-1185441,LiSm2Ga,-0.352197914166666,0.022834300364586,0.0,False,NM,0.0002546,225,full,False,0.0002546
mp-866146,LiSm2Ir,-0.530170049166667,0.011556883083326,0.0,False,NM,5.2e-06,225,full,False,5.2e-06
mp-866150,LiSm2Os,-0.178307839166667,0.0,0.0,False,NM,8.32e-05,225,full,False,8.32e-05
mp-865708,LiSm2Ru,-0.205882687916666,0.006810339973956,0.0,False,NM,6.360000000000001e-05,225,full,False,6.360000000000001e-05
mp-972993,LiSmAu2,-0.6821153145833311,0.006538096250002,0.0,False,NM,2.8e-06,225,full,False,2.8e-06
mp-865812,LiSmHg2,-0.517503625416672,0.0,0.0,False,NM,8.099999999999999e-06,225,full,False,8.099999999999999e-06
mp-1185481,LiSmIn2,-0.5133692616666671,0.029645283749999,0.0,False,NM,1.48e-05,225,full,False,1.48e-05