material_id,formula,formation_energy,ehull,band_gap,is_magnetic,magnetic_ordering,total_magnetization,spacegroup
mp-864769,LiYb2Tl,-0.24405101166667,0.029035606874998003,0.0,False,NM,0.003621199999999,225
mp-980190,LiYb3,0.189438052083328,0.189438052083328,0.0,False,NM,8e-07,225
mp-1185435,LiYbAu2,-0.792985305416664,0.0007834547656030001,0.0,False,NM,1e-07,225
mp-1185443,LiYbPb2,-0.36258644541666,0.059459874444435006,0.0,False,NM,3.9e-06,225
mp-1185447,LiYbPd2,-0.755652855416666,0.022998782903222003,0.0,False,NM,0.0,225
mp-1185439,LiYbTl2,-0.363785617916668,0.0,0.0,False,NM,0.0,225
mp-1185422,LiZn2Ag,-0.164231135416667,0.007141429333318,0.0,False,NM,1.699999999999999e-06,225
mp-867255,LiZn2Au,-0.392206324166668,0.0,0.0,False,NM,9e-07,225
mp-867253,LiZn2Ir,-0.38376491916666505,0.0,0.0,False,NM,3e-07,225
mp-867252,LiZn2Ni,-0.255890503333333,0.0,0.0,False,NM,1.5e-06,225
mp-867250,LiZn2Pd,-0.46564929083333206,0.0,0.0,False,NM,3.1e-06,225
mp-867251,LiZn2Pt,-0.561745348333332,0.0,0.0,False,NM,1e-07,225
mp-865912,LiZn2Rh,-0.42543464416666504,0.0,0.0,False,NM,3e-07,225
mp-865907,LiZn3,-0.164604937916667,0.0,0.0,False,NM,4e-06,225
mp-861625,LiZnAg2,-0.161002965416665,0.0,0.0,False,NM,5e-07,225
mp-9124,LiZnAs,-0.518190976944444,0.0,0.5518000000000001,False,NM,0.0,216
mp-861932,LiZnAu2,-0.44415804291666505,0.0,0.0,False,NM,4.7e-06,225
mp-1185432,LiZnCd2,-0.15915420791666401,0.024179960833329003,0.0,False,NM,8.2e-06,225
mp-1185430,LiZnCu2,-0.10682522083333201,0.010973245000002001,0.0,False,NM,1e-07,225
mp-7575,LiZnN,-0.42346953347222105,0.0,0.5187,False,NM,0.0,216
mp-1185421,LiZnNi2,-0.141806453333332,0.0,0.0,False,NM,4.53e-05,225
mp-10182,LiZnP,-0.655819149880952,0.0,1.3386,False,NM,0.0,216
mp-569685,LiZnP,-0.20954038988095203,0.44627875999999905,0.0,False,NM,2.2300000000000003e-05,216
mp-961698,LiZnP,-0.523291766547618,0.132527383333333,0.00019999999999900002,False,NM,0.0012396,216
mp-867258,LiZnPd2,-0.587634210833332,0.0,0.0,False,NM,1.1e-06,225
mp-1185418,LiZnPt2,-0.5866643033333331,0.0,0.0,False,NM,1.2e-06,225
mp-1100430,LiZnSb,-0.446482040555553,0.004926168333334,0.000299999999999,False,NM,0.0,216
mp-976330,LiZr2Ir,-0.552409506666666,0.026766439375006,0.0,False,NM,7.8e-06,225
mp-865870,LiZr2Os,-0.38684149166666804,0.0,0.0,False,NM,6.9e-06,225
mp-865872,LiZr2Re,-0.14780536395833102,0.011782068516669,0.0,False,NM,0.0002634,225
mp-865893,LiZr2Tc,-0.178113899166667,0.0,0.0,False,NM,3e-06,225
mp-865924,LiZrAu2,-0.589742580416668,0.008098890484689,0.0,False,NM,1.0800000000000002e-05,225
mp-865925,LiZrIr2,-0.685337942916667,0.0,0.0,False,NM,4e-07,225
mp-1185423,LiZrPd2,-0.5811786304166661,0.032286635397724,0.0,False,NM,7e-07,225
mp-865866,LiZrPt2,-0.9626634954166701,0.010696489289770001,0.0,False,NM,1.77e-05,225
mp-865868,LiZrRh2,-0.685877525416668,0.0,0.0,False,NM,2e-07,225
mp-631338,LiZrSc,1.131952621777777,1.138807721222223,0.0,False,NM,0.0939072,216
mp-1199571,Lu11Cd45,-0.207917806755948,0.002178701071429,0.0,False,NM,0.848706099999999,216
mp-1193129,Lu2(Ni7B2)3,-0.36866820063218303,0.0,0.0,False,NM,0.0094536,225
mp-865445,Lu2AgAu,-0.6856060445833301,0.0,0.0,False,NM,1.4e-06,225
mp-865446,Lu2AgHg,-0.46645882395833305,0.0,0.0,False,NM,0.0001433,225
mp-866145,Lu2AgIr,-0.692300233750001,0.0016270824999970001,0.0,False,NM,5.2e-06,225
mp-866147,Lu2AgOs,-0.366813546249999,0.0,0.0,False,NM,2.9900000000000005e-05,225
mp-973442,Lu2AgPt,-0.91120927708333,0.009948287187498002,0.0,False,NM,6e-07,225
mp-865459,Lu2AgRu,-0.43748145124999904,0.0,0.0,False,NM,8.599999999999999e-06,225
mp-865463,Lu2AlOs,-0.36748085833333205,0.04625777289062501,0.0,False,NM,6e-07,225
mp-973631,Lu2AlRu,-0.43824792833333404,0.062838860089287,0.0,False,NM,2.8400000000000003e-05,225
mp-973625,Lu2AlTc,-0.31029451267361,0.067382953437498,0.0,False,NM,3.6e-06,225
mp-973538,Lu2AlZn,-0.414974569583332,0.018132064375002,0.0,False,NM,2.4e-06,225
mp-973544,Lu2BeOs,-0.185342574583333,0.136085504272058,0.0,False,NM,1.8400000000000003e-05,225
mp-973956,Lu2CdAg,-0.34641017958333004,0.0,0.0,False,NM,2e-05,225
mp-1185448,Lu2CdHg,-0.448062157708328,0.0067422925,0.0,False,NM,9.1e-06,225
mp-866211,Lu2CdIn,-0.44734871333333304,0.0,0.0,False,NM,0.0009054,225
mp-1185459,Lu2CdOs,-0.277363333333331,0.049323459875001,0.0,False,NM,3.9e-06,225
mp-1185463,Lu2CdTc,-0.205622606017158,0.100925769374999,0.0,False,NM,0.057419,225
mp-1185457,Lu2CoCu,-0.267938758333334,0.0,0.0,True,FiM,0.371380999999999,225
mp-1185467,Lu2CoIr,-0.652757725833335,0.007934619374998,0.0,True,FiM,0.5650351,225
mp-1185449,Lu2CoOs,-0.26486899083333404,0.049261395062499005,0.0,False,NM,0.045049,225
mp-973886,Lu2CoRh,-0.622617043333334,0.014203716583333002,0.0,True,FiM,0.5317484,225
mp-865325,Lu2CoRu,-0.382484408333334,0.0,0.0,False,NM,2e-06,225
mp-1185452,Lu2CuAu,-0.5968943908333321,0.0,0.0,False,NM,4.599999999999997e-06,225
mp-865829,Lu2CuIr,-0.6976692708333331,0.0,0.0,False,NM,9.1e-06,225
mp-865830,Lu2CuOs,-0.36470152333333206,0.0,0.0,False,NM,1e-07,225
mp-1185442,Lu2CuPd,-0.6487206658333301,0.0,0.0,False,NM,0.0005287,225
mp-865847,Lu2CuPt,-0.904321140833332,0.0,0.0,False,NM,3e-07,225
mp-973951,Lu2CuRh,-0.6878928658333301,0.0,0.0,False,NM,1e-07,225
mp-865595,Lu2CuRu,-0.437005078333332,0.0,0.0,False,NM,1e-07,225
mp-865420,Lu2CuTc,-0.223477141833324,0.029927001250001,0.0,False,NM,0.000272899999999,225
mp-973964,Lu2GaAg,-0.52546614958333,0.006820499687499,0.0,False,NM,1.6e-06,225
mp-973996,Lu2GaCu,-0.44544078770833506,0.0031757765624960002,0.0,False,NM,0.0,225
mp-1185465,Lu2GaOs,-0.44164429270833305,0.046476148625001004,0.0,False,NM,0.0109344,225
mp-1185436,Lu2GaRu,-0.525700095208331,0.012656633750003001,0.0,False,NM,1.7000000000000003e-05,225
mp-865593,Lu2GaTc,-0.38810332270832804,0.12801309906250302,0.0,False,NM,0.0012982,225
mp-981393,Lu2HgAu,-0.7609173627083331,0.00648540249999,0.0,False,NM,6.7e-06,225
mp-865505,Lu2InAg,-0.46273185458333504,0.0,0.0,False,NM,1.8200000000000002e-05,225
mp-973734,Lu2InHg,-0.5176785502083371,0.011971444999993001,0.0,False,NM,2.1200000000000004e-05,225
mp-865589,Lu2IrPd,-1.027502483333331,0.0,0.0,False,NM,7e-07,225
mp-865623,Lu2IrRh,-1.025723208333333,0.0,0.0,False,NM,2.4e-06,225
mp-865321,Lu2IrRu,-0.7766640933333331,0.0,0.0,False,NM,7.299999999999999e-06,225
mp-865238,Lu2MgAl,-0.234523757083333,0.0,0.0,False,NM,0.0002957,225
mp-973759,Lu2MgCd,-0.14958102958333303,0.008411090000000001,0.0,False,NM,1e-07,225
mp-973771,Lu2MgHg,-0.22908378020833503,0.020433825000000003,0.0,False,NM,0.0002417,225
mp-865240,Lu2MgIn,-0.252657528749999,0.0,0.0,False,NM,0.0145019,225
mp-865315,Lu2MgOs,-0.21346111208333501,0.046823805249999004,0.0,False,NM,1.3000000000000001e-05,225
mp-865318,Lu2MgRu,-0.253404497083334,0.076277752500001,0.0,False,NM,2.9400000000000003e-05,225
mp-865329,Lu2MgTc,-0.055413163333333,0.06393147104166601,0.0,False,NM,0.000164,225
mp-865337,Lu2NiIr,-0.7777233333333331,0.0,0.0,False,NM,0.00223,225
mp-865334,Lu2NiOs,-0.43136101583333203,0.013794996750000002,0.0,False,NM,0.011899,225
mp-865335,Lu2NiRu,-0.524599895833333,0.0,0.0,False,NM,0.0078473,225
mp-865336,Lu2OsPd,-0.674920463333333,0.0,0.0,False,NM,5.7e-05,225
mp-1185456,Lu2PdAu,-0.977697540833325,0.021359487499999,0.0,False,NM,2.6400000000000005e-05,225
mp-865326,Lu2PdPt,-1.232748273333335,0.002853288749996,0.0,False,NM,2e-07,225
mp-973882,Lu2PdRh,-1.034846963333329,0.022268117500001003,0.0,False,NM,1.699999999999999e-06,225
mp-865320,Lu2PdRu,-0.775288643333333,0.0,0.0,False,NM,0.000109499999999,225
mp-973414,Lu2RuAu,-0.6756881333333341,0.010619887499998001,0.0,False,NM,0.0001635,225
mp-865599,Lu2RuPt,-0.925857250833331,0.0,0.0,False,NM,1e-06,225
mp-865601,Lu2RuRh,-0.7752929083333311,0.0,0.0,False,NM,9.320000000000004e-05,225
mp-865214,Lu2TcAg,-0.23632068927083302,0.023573188124998003,0.0,False,NM,0.0001729,225
mp-973456,Lu2TcAu,-0.525055783645832,0.128939943749998,0.0,False,NM,9.890000000000003e-05,225
mp-865413,Lu2TcPd,-0.53428161473958,0.09328711687499901,0.0,False,NM,0.0306707,225
mp-866131,Lu2TlAg,-0.319393562083332,0.0,0.0,False,NM,2.59e-05,225
mp-866133,Lu2TlCd,-0.26921999416666503,0.0,0.0,False,NM,2.6800000000000004e-05,225
mp-973893,Lu2TlHg,-0.35330398979167205,0.006757544999995001,0.0,False,NM,2e-07,225
mp-1185446,Lu2TlIn,-0.312764138333331,0.0035331450000020003,0.0,False,NM,2.9700000000000004e-05,225
mp-1185453,Lu2TlZn,-0.285605019166669,0.020665052499997002,0.0,False,NM,0.0006851,225
mp-973653,Lu2ZnAg,-0.37562163083333205,0.0,0.0,False,NM,2.4e-05,225
mp-865406,Lu2ZnAu,-0.692995994583334,0.008753405937497,0.0,False,NM,4.599999999999997e-06,225
mp-973662,Lu2ZnCu,-0.322767533333335,0.0,0.0,False,NM,1.2e-06,225
mp-973636,Lu2ZnGa,-0.5319725820833341,0.031897512812498,0.0,False,NM,0.0001627,225
mp-973646,Lu2ZnHg,-0.46607875895833206,0.01218025,0.0,False,NM,1.8e-06,225
mp-973635,Lu2ZnIn,-0.446912234583329,0.029301243928571002,0.0,False,NM,4.68e-05,225
mp-865260,Lu2ZnIr,-0.714384725833333,0.0,0.0,False,NM,1e-07,225
mp-865261,Lu2ZnOs,-0.372941370833332,0.0,0.0,False,NM,5.9e-06,225
mp-973603,Lu2ZnPd,-0.6596680758333311,0.007728347500002001,0.0,False,NM,0.0,225
mp-865414,Lu2ZnPt,-0.855569323333332,0.004623256145833,0.0,False,NM,6e-07,225
mp-865437,Lu2ZnRu,-0.44079445833333303,0.0,0.0,False,NM,2e-07,225
mp-865917,Lu2ZnTc,-0.26474941098958304,0.06131877937500001,0.0,False,NM,0.0040309,225
mp-1210990,Lu3(P3Pd10)2,-0.734722975788177,0.0,0.0,False,NM,3e-06,225
mp-1210653,Lu4CdIr,-0.5462331581944451,0.0,0.0,False,NM,1.4504148,216
mp-1210662,Lu4CdNi,-0.31705044527777604,0.0,0.052899999999999,False,NM,0.0,216
mp-1210768,Lu4CdPd,-0.46627611444444605,0.0,0.0,False,NM,0.08661869999999901,216
mp-1210803,Lu4CdPt,-0.62417442194445,0.0,0.0145,False,NM,7e-07,216
mp-1210928,Lu4InRh,-0.6655234344444381,0.0,0.024799999999999003,False,NM,6e-07,216
mp-1211003,Lu4MgNi,-0.21695315736111,0.0,0.0158,False,NM,0.2749947,216
mp-1210733,Lu4MgRh,-0.416560391527776,0.0,0.0,False,NM,1.2386246,216
mp-33623,Lu4V4O13,-3.06826807436508,0.227272981726191,0.0,True,FM,5.8903925,216
mp-1193217,Lu6Cu23,-0.21628776189654902,0.009810238448277001,0.0,False,NM,0.0087449,225
mp-1193644,Lu6Fe23,-0.104168193448276,0.004332606206894,0.0,True,FiM,50.6538614,225
mp-1193176,Lu6Mn23,-0.042085031462544005,0.0,0.0,True,FiM,12.7310075,225
mp-1192910,Lu6Zn23,-0.32692731844827305,0.012544218025078002,0.0,False,NM,0.0,225
mp-1185499,LuAg3,-0.210255580416664,0.064846307500005,0.0,False,NM,8.580000000000004e-05,225
mp-1185507,LuAgHg2,-0.327388936666665,0.0,0.0,False,NM,2.7e-06,225
mp-976931,LuAlAg2,-0.34279282916666803,0.006698714999998001,0.0,False,NM,8e-06,225
mp-1185509,LuAlCu2,-0.415212584166663,0.0,0.0,False,NM,4.2e-06,225
mp-2017,LuAs,-1.73668287958333,0.0,0.0,False,NM,4e-07,225
mp-1104289,LuB12,-0.25934936743589804,0.0,0.0,False,NM,1e-07,225
mp-568059,LuBi,-0.9204164508333361,0.0,0.0,False,NM,5e-07,225
mp-1207185,LuBiPd,-0.9865517138888911,0.0,0.0,False,NM,1.2e-05,216
mp-1185495,LuBiPd2,-0.7880984926666551,0.07652145525000201,0.0,False,NM,0.0005551999999990001,225
mp-1206992,LuBiPt,-1.140844233888884,0.0,0.0,False,NM,2.499999999999999e-06,216
mp-865977,LuCdAg2,-0.27337055916666403,0.002375316814518,0.0,False,NM,1e-07,225
mp-865988,LuCdHg2,-0.351147112916663,0.0,0.0,False,NM,1e-07,225
mp-1077095,LuCdNi4,-0.368485549444444,0.0,0.0,False,NM,0.018272,216
mp-866207,LuCdPd2,-0.7664375291666601,0.0,0.0,False,NM,1.97e-05,225
mp-1185512,LuCdPt2,-0.859606384166665,0.023501613250002003,0.0,False,NM,0.0003627,225
mp-865796,LuCdRh2,-0.6920993941666641,0.0,0.0,False,NM,1.22e-05,225
mp-865797,LuCo2Sn,-0.32021868541666704,0.027536858749999,0.0,True,FM,1.0245375,225
mp-580136,LuCu5,-0.202218766111111,0.0,0.0,False,NM,2.899999999999999e-06,216
mp-1185487,LuF3,-4.058234053749999,0.39092723499999904,6.2232,False,NM,8e-06,225
mp-865806,LuGaCu2,-0.354985716041666,0.032380654166670006,0.0,False,NM,0.0001908,225
mp-1185503,LuGaNi2,-0.500295441041666,0.10362219375000001,0.0,False,NM,0.0041582,225
mp-865607,LuGaPd2,-0.8917977741666651,0.017691638541663002,0.0,False,NM,1.4900000000000001e-05,225
mp-865609,LuGaRh2,-0.9137339885416671,0.0,0.0,False,NM,9e-07,225
mp-24288,LuH2,-0.785675258055552,0.0,0.0,False,NM,1.2e-05,225
mp-1185511,LuHfCo2,-0.321463706666667,0.07105911033333101,0.0,True,FiM,1.2870332,225
mp-1185493,LuHfIr2,-0.939550111666665,0.0402884275,0.0,False,NM,0.0005669,225
mp-1185496,LuHfRh2,-0.9870697391666631,0.017697210721159002,0.0,False,NM,3.4300000000000014e-05,225
mp-865846,LuHfRu2,-0.667736076666667,0.0,0.0,False,NM,4.8e-06,225
mp-865848,LuInAg2,-0.37486431666666303,0.0,0.0,False,NM,6.2e-06,225
mp-30393,LuInAu2,-0.760536086666668,0.013883352777774001,0.0,False,NM,5.8800000000000006e-05,225
mp-1025033,LuInCo4,-0.160848750555555,0.00451207361111,0.0,True,FiM,4.574189,216
mp-4972,LuInCu2,-0.366030491666666,0.0,0.0,False,NM,1.4e-05,225
mp-865945,LuInNi2,-0.41152630583333205,0.042424083611114,0.0,False,NM,0.0002605,225
mp-1206270,LuInNi4,-0.411852845555557,0.0,0.0,False,NM,9.640000000000001e-05,216
mp-12129,LuInPd2,-0.8580285458333321,0.0,0.0,False,NM,8e-07,225
mp-1185489,LuInPt2,-1.066440651666667,0.033175899423078005,0.0,False,NM,2e-07,225
mp-865884,LuInRh2,-0.920134789166663,0.0,0.0,False,NM,4.8e-06,225
mp-1185515,LuMg2Sc,-0.018285032916666,0.010205937500000001,0.0,False,NM,4.1500000000000006e-05,225
mp-1185502,LuMg3,-0.005692225416667001,0.009607082500000001,0.0,False,NM,2.5700000000000005e-05,225
mp-1185500,LuMgAg2,-0.292354603749998,0.0,0.0,False,NM,6.099999999999997e-06,225
mp-865861,LuMgAu2,-0.7843748879166651,0.0,0.0,False,NM,1.5700000000000002e-05,225
mp-865223,LuMgCd2,-0.233183900416666,0.0,0.0,False,NM,5e-07,225
mp-865226,LuMgHg2,-0.409014109166671,0.0,0.0,False,NM,3e-07,225
mp-865253,LuMgPd2,-0.857993077916668,0.0,0.0,False,NM,3.2e-06,225
mp-865271,LuMgRh2,-0.795624880416661,0.0,0.0,False,NM,1.3600000000000002e-05,225
mp-1185501,LuMgTl2,-0.14115783208333701,0.042025029166663,0.0,False,NM,0.006684799999999,225
mp-865256,LuMgZn2,-0.30844819041666605,0.0,0.0,False,NM,4.3700000000000005e-05,225
mp-1185505,LuMnRh2,-0.5975676186494231,0.006113785000001,0.0,True,FM,4.5408373,225
mp-1102,LuN,-2.215705882708334,0.0,0.23309999999999903,False,NM,0.0,225
mp-865255,LuNbRu2,-0.43273548166666403,0.0,0.0,False,NM,8.7e-06,225
mp-11492,LuNi2Sn,-0.516252012916664,0.017926692656254,0.0,False,NM,0.000107299999999,225
mp-1072381,LuNi4Au,-0.41893681111111003,0.0,0.0,False,NM,0.166413199999999,216
mp-568552,LuNi4Sn,-0.41318265527777703,0.0014790053125020002,0.0,False,NM,0.0222538,216
mp-30457,LuNiBi,-0.71176266055555,0.0,0.012699999999999,False,NM,0.0,216
mp-20185,LuNiSb,-0.9881912088888831,0.0,0.214599999999999,False,NM,0.0,216
mp-1185518,LuNpRu2,-0.295213951354167,0.006389770312498001,0.0,True,FiM,2.8747618999999993,225
mp-10192,LuP,-1.818098097321424,0.0,0.0,False,NM,1.2e-06,225
mp-865608,LuPaOs2,-0.291366774166668,0.000330253125,0.0,False,NM,3.2200000000000003e-05,225
mp-1185527,LuPaRe2,0.00047166958333300004,0.239662658125002,0.0,False,NM,4.2e-06,225
mp-865639,LuPaRu2,-0.484444201666665,0.0,0.0,True,FM,0.121492499999999,225
mp-865801,LuPaTc2,-0.283012331666668,0.0,0.0,False,NM,5.47e-05,225
mp-1206796,LuPd2Pb,-0.710763979166666,0.021424805312497002,0.0,False,NM,0.0032733999999990005,225
mp-865969,LuReTc2,-0.040271232291667,0.183369588437498,0.0,False,NM,0.0001292,225
mp-865443,LuRh2Pb,-0.5972035491666651,0.0,0.0,True,FM,0.8472215,225
mp-656,LuS,-2.108514719739577,0.0,0.0,False,NM,0.000107799999999,225
mp-516,LuSb,-1.233215523333331,0.0,0.0,False,NM,8e-07,225
mp-865447,LuSbPd2,-0.895846756666667,0.010651846999987,0.0,False,NM,6e-07,225
mp-10194,LuSbPt,-1.3663540288888871,0.0,0.0,False,NM,1.6e-06,216
mp-866137,LuSbRh2,-0.8223071991666651,0.049054073958313,0.0,False,NM,0.000112899999999,225
mp-866138,LuSbRu2,-0.520204601666665,0.034764822500001,0.0,False,NM,1.48e-05,225
mp-1185510,LuScCo2,-0.291537130416666,0.012742544479165,0.0,True,FiM,0.7053296,225
mp-1185508,LuScCu2,-0.28025124291666603,0.0,0.0,False,NM,0.0,225
mp-1185506,LuScHg2,-0.513785954166671,0.001179887499993,0.0,False,NM,0.000446,225
mp-1185491,LuScIr2,-0.989625687916666,0.04545219,0.0,False,NM,1.15e-05,225
mp-974065,LuScPd2,-0.9487532604166621,0.0112644925,0.0,False,NM,2.1e-06,225
mp-973432,LuScRh2,-1.004918235416664,0.025211210000001,0.0,False,NM,7.2e-06,225
mp-973433,LuScRu2,-0.49966342291666604,0.0061046025000010004,0.0,False,NM,9.240000000000001e-05,225
mp-973430,LuScZn2,-0.363861962916666,0.007347619999999001,0.0,False,NM,0.0048413,225
mp-414,LuSe,-1.812223762864579,0.022326606111114002,0.0,False,NM,4.3e-05,225
mp-5177,LuSnAu,-0.931271765555555,0.0,0.0,False,NM,6.099999999999997e-06,216
mp-5181,LuSnPd2,-0.9190374991666631,0.0,0.0,False,NM,5.4e-06,225
mp-865378,LuSnRh2,-0.8560770779166641,0.0,0.0,True,FM,0.736987899999999,225
mp-865379,LuSnRu2,-0.44000124291666604,0.0,0.0,False,NM,1.899999999999999e-06,225
mp-866127,LuTaOs2,-0.375750661000019,0.0,0.0,False,NM,0.0,225
mp-866125,LuTaRu2,-0.509273698500001,0.0,0.0,False,NM,8.560000000000001e-05,225
mp-866124,LuTc2W,-0.11186654541667401,0.11969388624999701,0.0,False,NM,0.0091193,225
mp-1254,LuTe,-1.2798566966666711,0.06045486499999601,0.0,False,NM,9.6e-06,225
mp-865410,LuThRu2,-0.505350231666665,0.0,0.0,False,NM,6.570000000000001e-05,225
mp-865416,LuThTc2,-0.16037794593006502,0.09149385874999101,0.0,False,NM,0.001112699999999,225
mp-865438,LuTlRh2,-0.5930293950000011,0.0,0.0,False,NM,7.699999999999999e-06,225
mp-865488,LuUTc2,-0.130547316041685,0.142386901249999,0.0,False,NM,0.1035487,225
mp-865563,LuZnPd2,-0.80103935666666,0.0,0.0,False,NM,5.2e-06,225
mp-865566,LuZnRh2,-0.800557090416663,0.0,0.0,False,NM,1.9200000000000003e-05,225
mp-865461,LuZrCo2,-0.28186188166666604,0.0,0.0,True,FiM,1.3298533,225
mp-865434,LuZrRu2,-0.596900841666665,0.0,0.0,False,NM,5e-07,225
mp-1056702,Mg,0.030189964999999003,0.030189964999999003,0.0,False,NM,8.599999999999999e-06,225
mp-1206547,Mg(BN3)2,2.6396758982870363,3.442155343842591,0.0,False,NM,0.0005804,225
mp-1079835,Mg(BrN3)2,1.884487348333333,2.502389615555554,0.0,True,FM,1.9999472999999992,225
mp-1222210,Mg(CoO2)4,-1.400449504230769,0.082827086923068,0.0,True,FM,2.0014566,216
mp-2219510,Mg(CoS2)4,-0.311806387307691,0.530619026923075,0.0,True,FM,2.006683,216
mp-1246794,Mg(CrS2)4,-1.038320826538461,0.009330775769220001,0.0,True,FiM,10.0000001,216
mp-2219028,Mg(CuO2)4,-1.018522744999999,0.11378208740384901,0.0,True,FM,5.8689941,216
mp-2219176,Mg(MnS2)4,-0.9541838666710861,0.038942206923053,0.0,True,FM,10.1530195,216
mp-1078952,Mg(N3Cl)2,3.005693101666666,3.757509717777777,0.0,True,FM,14.3537336,225
mp-2218829,Mg(NiS2)4,-0.657217748846152,0.117031683076926,0.0,False,NM,4.2800000000000004e-05,216
mp-2219230,Mg(NiS2)4,-0.275675722692306,0.49857370923077204,0.0,False,NM,5.5600000000000017e-05,216
mp-1222166,Mg(TiH3)2,-0.13309512990740602,0.362053782222223,0.0086,True,FM,2.0,216
mp-1233139,Mg(TiS2)4,-1.6311279852564091,0.032118003846155,0.0,True,FM,1.7768712,216
mp-1246770,Mg(VS2)4,-1.265253013461538,0.04867791730768101,0.015299999999999002,True,FM,6.000118,216
mp-2218282,Mg(VS2)4,-0.8367886388461531,0.47714229192306606,0.1625,False,NM,0.0005300999999990001,216
mp-31499,Mg29Ir4,-0.16409588297979702,0.001208079531026,0.0,False,NM,4e-07,216
mp-1212554,Mg29Pd4,-0.107868930050504,0.08545544651515101,0.0,False,NM,0.5748213,216
mp-864978,Mg2AgAu,-0.425984957916666,0.0,0.0,False,NM,8e-07,225
mp-1185750,Mg2AgHg,-0.21508312104166702,0.0,0.0,False,NM,1e-07,225
mp-864976,Mg2AgIr,-0.28380000041666503,0.011970491644738,0.0,False,NM,1e-07,225
mp-1185749,Mg2AgPd,-0.47207504541666506,0.008508659999999,0.0,False,NM,0.0001794,225
mp-864932,Mg2AgPt,-0.5584403854166641,0.0,0.0,False,NM,5e-07,225
mp-864933,Mg2AgRh,-0.362776732916665,0.0,0.0,False,NM,1.1e-06,225
mp-1185662,Mg2CdAg,-0.13715745041666502,0.025367825416667003,0.0,False,NM,4.13e-05,225
mp-1185755,Mg2CdHg,-0.123374163125001,0.023827070555555004,0.0,False,NM,0.0006240999999990001,225
mp-1185752,Mg2CdIr,-0.21677763499999902,0.034210929364035005,0.0,False,NM,0.0001638,225
mp-1185761,Mg2CdPd,-0.38475045499999805,0.025942002916667,0.0,False,NM,2.59e-05,225