material_id,formula,formation_energy,ehull,band_gap,is_magnetic,magnetic_ordering,total_magnetization,spacegroup
mp-1517399,KNdZrNbO6,-3.154256782475001,0.156023616787511,0.0,False,NM,7.950000000000002e-05,216
mp-1521108,KNdZrSnO6,-2.884811901975,0.17107727312499502,3.1768,False,NM,0.0,216
mp-1523257,KNdZrTiO6,-3.348764825808334,0.140485095250024,2.1104,False,NM,2.85e-05,216
mp-1519358,KNiBiWO6,-1.730307628724999,0.183483020500002,1.3429,True,FM,2.0000009,216
mp-1180622,KP,0.47213549288690604,1.00872305,0.0,True,FM,1.9998611,225
mp-1517594,KPr(SnO3)2,-2.365792589891666,0.178439432999996,1.1534,False,NM,0.0,225
mp-1522018,KPrAlBiO6,-2.414907063891667,0.19930963725000403,0.0,False,NM,0.0,216
mp-1516810,KPrCrWO6,-2.494605091891665,0.17193414894445103,0.0,True,FiM,2.0000005,216
mp-1522577,KPrDyFeO6,-2.473109339058332,0.191094818729162,0.271,True,FiM,3.0,216
mp-1522774,KPrDyGeO6,-2.718067988558333,0.189660476180554,0.0,True,FM,0.9999998,216
mp-1520047,KPrDyNbO6,-3.1744916420583342,0.185151235437494,2.4221,False,NM,0.0,216
mp-1519438,KPrDySbO6,-2.828419917058332,0.13333757333333102,3.2328,False,NM,0.0,216
mp-1517261,KPrEuSbO6,-2.562843423391667,0.258471505249999,0.0,True,FM,6.0000002,216
mp-1520019,KPrEuSbO6,-2.565695350391667,0.25561957824999904,0.0,True,FM,5.9999998,216
mp-1516456,KPrEuWO6,-2.799099223391668,0.117289254729161,0.570599999999999,True,FM,6.9999999,216
mp-1518082,KPrFeBiO6,-1.987250518891667,0.177582813749999,0.37720000000000004,True,FM,5.0000005,216
mp-1521264,KPrGdFeO6,-2.441419959891666,0.19537570097916301,0.07830000000000001,True,FM,10.0000005,216
mp-1517428,KPrGdGeO6,-2.675153778391667,0.20340210555555002,0.0,True,FM,6.0000003,216
mp-1522216,KPrHf2O6,-3.553620121891666,0.07274194137498301,2.814599999999999,False,NM,0.0,225
mp-1522099,KPrHfInO6,-2.726627014558333,0.198000008562493,0.0,True,FM,0.999999899999999,216
mp-1518396,KPrHfSnO6,-2.982058603391665,0.122937982168748,3.366699999999999,False,NM,0.0,216
mp-1518922,KPrHfWO6,-2.904874692891666,0.18963750470833102,0.0,True,FM,2.0,216
mp-1518487,KPrHfZrO6,-3.465254990891666,0.12189063149375301,2.662699999999999,False,NM,0.0,216
mp-1519279,KPrInSbO6,-2.303195071558333,0.16441487266666502,1.190599999999999,False,NM,0.0,216
mp-1520700,KPrMgBiO6,-2.132119412391667,0.20170838837499702,0.0,False,NM,1.0,216
mp-1520976,KPrMgWO6,-2.762086675391667,0.067196951,2.9739,False,NM,0.0,216
mp-1521485,KPrMnBiO6,-2.06475979168477,0.20164784128125102,0.0,True,FM,3.8967314,216
mp-1519998,KPrMnNbO6,-2.746034573684771,0.15183725449999402,0.0,True,FM,4.0000006,216
mp-1522610,KPrMnWO6,-2.511125722684769,0.117010023,1.322299999999999,True,FM,4.9999997,216
mp-1523059,KPrNbInO6,-2.707404843558333,0.15881862299999502,3.018,False,NM,0.0,216
mp-1519999,KPrNiWO6,-2.349893803891666,0.1153450485,3.102099999999999,True,FM,2.0000009,216
mp-1519274,KPrSmSbO6,-2.7518875053916663,0.175267815833332,3.056899999999999,False,NM,0.0,216
mp-1519436,KPrVWO6,-2.577525444891667,0.12980896056945002,0.40080000000000005,True,FM,2.999999599999999,216
mp-1518428,KPrYFeO6,-2.452759325891667,0.19865136766666103,0.274099999999999,True,FM,3.0000001,216
mp-1517759,KPrYNbO6,-3.159667524891667,0.18718188837499503,2.4244,False,NM,0.0,216
mp-1517276,KPrYSbO6,-2.810903721891666,0.138587119958333,3.2201,False,NM,0.0,216
mp-1517800,KPrZnWO6,-2.446087947891667,0.133713666999997,3.106,False,NM,0.0,216
mp-1518622,KPrZr2O6,-3.375919957891667,0.150028697124991,2.5349999999999993,False,NM,0.0,225
mp-1516970,KPrZrNbO6,-3.165764703891666,0.13056240129374602,0.0,False,NM,0.00019659999999900002,216
mp-1114046,KRb2AlBr6,-1.802056757225,0.07475058699999901,3.283,False,NM,0.0019144,225
mp-1113984,KRb2AlCl6,-2.160005042224999,0.049439843000000004,4.6491,False,NM,0.000165,225
mp-1113768,KRb2AlF6,-3.425986403225,0.0,6.4284,False,NM,5.1100000000000016e-05,225
mp-1114183,KRb2AlI6,-1.314958142224999,0.079465572749999,1.7559,False,NM,0.0014433,225
mp-1114124,KRb2AsBr6,-1.531015708975,0.028182640499999002,3.0145,False,NM,0.0003988,225
mp-1114043,KRb2AsCl6,-1.801930458975,0.015480279249998001,3.4879000000000002,False,NM,0.0010594,225
mp-1113892,KRb2AsF6,-2.781942948975,0.0,4.5539000000000005,False,NM,9.960000000000005e-05,225
mp-1114184,KRb2AsI6,-1.140727417975,0.06306787649999901,2.0398,False,NM,0.0140675,225
mp-1114125,KRb2AuBr6,-1.334208712225,0.146705641999999,0.0,True,FM,1.9986971,225
mp-1114398,KRb2AuCl6,-1.561162481225,0.139624321499999,0.24450000000000002,True,FM,1.997298799999999,225
mp-1113893,KRb2AuF6,-2.3230942082249992,0.078385307999997,0.7444000000000001,True,FM,2.0010751,225
mp-554941,KRb2BiF6,-2.898331616224999,0.0063959408749990005,4.7966999999999995,False,NM,0.0,225
mp-560071,KRb2CoF6,-2.7180167332250003,0.0,0.0,False,NM,0.0,225
mp-556264,KRb2CrF6,-3.104713231225,0.0003340176,4.1253,True,FM,3.0,225
mp-1206427,KRb2CuF6,-2.564464233225,0.0,0.8802000000000001,True,FM,2.005746,225
mp-1114044,KRb2DyCl6,-2.466919112391666,0.029880361,4.8552,False,NM,0.00019559999999900002,225
mp-1114041,KRb2ErCl6,-2.471317664225,0.030269481,4.8731,False,NM,0.0002469,225
mp-1114042,KRb2EuCl6,-2.267908983725,0.04730498500000101,0.0,True,FM,6.0,225
mp-561067,KRb2FeF6,-2.934297378224999,0.0,4.140000000000001,True,FM,4.9998772,225
mp-1114039,KRb2GaBr6,-1.657864739974999,0.098285568999998,2.1466,False,NM,0.0017844,225
mp-1114040,KRb2GaCl6,-1.9732660529750001,0.071035822499999,3.3948,False,NM,0.0002659,225
mp-13190,KRb2GaF6,-3.066574973975,0.0,5.8894,False,NM,0.000749,225
mp-1114181,KRb2GaI6,-1.212657048975,0.142858098249998,0.8262,False,NM,0.0018011,225
mp-1114037,KRb2GdCl6,-2.459143542224999,0.027833005,3.253,True,FM,7.000032,225
mp-1114122,KRb2InBr6,-1.696922905891666,0.0439912485,2.3739,False,NM,0.0,225
mp-989529,KRb2InCl6,-1.9947973678916662,0.0,3.5425,False,NM,0.0009831,225
mp-1078205,KRb2InF6,-2.985904078891666,0.015989462999999,5.3194,False,NM,0.0007049,225
mp-1114178,KRb2InI6,-1.2650520168916661,0.09347527366666401,1.2656,False,NM,0.0154968,225
mp-1113764,KRb2IrF6,-2.536821479225,0.009033736249999001,2.5351,False,NM,0.0004161,225
mp-1114123,KRb2LaCl6,-2.472246867725,0.06304398825,4.7565,False,NM,0.000227,225
mp-1114035,KRb2LuCl6,-2.472833003891666,0.010392505250000001,4.9104,False,NM,0.0003169,225
mp-1113757,KRb2MnF6,-2.9262401500181032,0.045925280999989,0.0,True,FM,3.9998725,225
mp-554168,KRb2MoF6,-2.961774015224999,0.0,3.6262,True,FM,2.9991779,225
mp-1113891,KRb2NbF6,-2.987359461224999,0.068729059749999,0.0,True,FM,2.0006283,225
mp-555464,KRb2NiF6,-2.595287777225,0.0137817635,0.0,True,FM,0.998570699999999,225
mp-1113755,KRb2PdF6,-2.475685042225,0.026065983000004,0.0,True,FM,0.9997860999999991,225
mp-14036,KRb2RhF6,-2.625337121225,0.0,2.1662,False,NM,0.0,225
mp-1113753,KRb2RuF6,-2.609928074225,0.0,0.0,True,FM,1.0016026,225
mp-1114120,KRb2ScBr6,-2.068770993725,0.028263042499998003,3.191799999999999,False,NM,0.0014041,225
mp-1114036,KRb2ScCl6,-2.409211286725,0.0,4.0163,False,NM,0.0003558,225
mp-9349,KRb2ScF6,-3.5572896317250002,0.011553407500000001,6.381299999999999,False,NM,0.0,225
mp-1110633,KRb2ScI6,-1.586508878724999,0.0152074995,2.339,False,NM,0.0004345,225
mp-1114033,KRb2SmCl6,-2.450773727725,0.039327299999999,4.796,False,NM,0.0008334999999990001,225
mp-1114034,KRb2TbCl6,-2.4653886668916662,0.030724395333332002,4.564500000000001,False,NM,0.0013794,225
mp-6074,KRb2TiF6,-3.298384584558333,0.0,0.0,True,FM,1.0000431,225
mp-1114121,KRb2TlBr6,-1.5463839205583332,0.050483112750001,1.3876,False,NM,0.0089933,225
mp-1114031,KRb2TlCl6,-1.810011363558334,0.036305611333332,2.416,False,NM,0.0,225
mp-1113872,KRb2TlF6,-2.695476285558332,0.0,3.855699999999999,False,NM,0.0,225
mp-1114172,KRb2TlI6,-1.151498649558334,0.12454335449999901,0.47490000000000004,False,NM,0.0011886,225
mp-1114032,KRb2TmCl6,-2.472512341225,0.027685155333333003,4.871499999999999,False,NM,0.0001434,225
mp-557411,KRb2VF6,-3.152215331225002,0.0,0.0,True,FM,2.0000009,225
mp-1185107,KRb3,0.023103715062500002,0.023103715062500002,0.0,False,NM,2.899999999999999e-06,225
mp-1184997,KRbAu2,-0.265591738687501,0.012535035312496001,0.0947,False,NM,0.0,225
mp-1223322,KRbMnF6,-2.891623081409003,0.006625200833332,3.343499999999999,True,FM,2.999992299999999,216
mp-1058119,KS,-0.512759862447916,0.586720252499999,0.0,True,FM,0.9999486,225
mp-631466,KSc2Co,1.005569578625001,1.151197222375001,0.0,False,NM,0.0655142,216
mp-1205684,KScTl2F6,-3.130082330891667,0.008228743900011,4.6231,False,NM,0.0002827,225
mp-1059621,KSe,-0.6859693647968751,0.48198505500000005,0.0,True,FM,0.9999956,225
mp-1058944,KSi,1.104261645312499,1.241568918749999,0.0,True,FM,1.1856937,225
mp-631408,KSi2Hg,0.537730872421875,0.6832522143749991,0.0,False,NM,0.0053359,216
mp-631318,KSiTc2,0.9881578461249981,1.248366909874999,0.0,False,NM,0.0008621,216
mp-1520283,KSmEuSbO6,-2.627874137725001,0.225116120083329,0.0,True,FM,6.0000001,216
mp-1518998,KSmEuWO6,-2.857134713725001,0.09581186510416101,0.4419,True,FM,7.0000002,216
mp-1518329,KSmHf2O6,-3.516868117225,0.163175671453117,2.7483,False,NM,0.0,225
mp-1520310,KSmHfSnO6,-2.945533642724999,0.18448152480625402,3.250899999999999,False,NM,0.0,216
mp-1521990,KSmHfZrO6,-3.424779771225,0.19394977365312102,2.6097,False,NM,0.0,216
mp-1521934,KSmSnWO6,-2.425233589725,0.169492690333328,2.367,False,NM,0.0,216
mp-1521521,KSmTiSnO6,-2.827884178058333,0.197590481249999,2.8282,False,NM,0.0,216
mp-631322,KSnOs,1.114672475916667,1.302004368333332,0.0,False,NM,0.0267855,216
mp-973278,KSr3,0.108586906749999,0.108586906749999,0.0,False,NM,0.0235702,225
mp-1518709,KSrBiWO6,-2.2890653527250002,0.075431900749997,2.2671,False,NM,0.0,216
mp-1520978,KSrCaMnO6,-2.049051863518104,0.178596231833331,0.0,True,FiM,5e-07,216
mp-1523116,KSrCeBiO6,-2.575588980725,0.029819364649998,1.6961,False,NM,0.0,216
mp-1517776,KSrCeFeO6,-2.462169611724999,0.095213918749998,0.0,True,FM,3.0000005,216
mp-1523311,KSrCeMnO6,-2.605922427518103,0.12198362512500001,0.0,True,FiM,2.0000005,216
mp-1519183,KSrCeNbO6,-3.199506199725,0.037880701,2.062799999999999,False,NM,0.0,216
mp-1522476,KSrCeSbO6,-2.837668647724999,0.015441119250000001,1.9232999999999991,False,NM,0.0,216
mp-1521246,KSrCeWO6,-2.860514237724999,0.110672176249999,0.0,True,FM,1.0,216
mp-1521008,KSrDyWO6,-2.948991591891666,0.008265893958329001,2.8841,False,NM,0.0,216
mp-1523292,KSrEuFeO6,-2.075861652225001,0.18077269675000202,0.0,True,FiM,7.9999999,216
mp-1522736,KSrEuSeO6,-2.2316822094593762,0.21332391916666402,0.0,True,FM,5.9999998,216
mp-1523267,KSrEuWO6,-2.694311901225,0.12104668774999501,0.0,True,FM,6.0000001,216
mp-1520699,KSrGdMnO6,-2.393713992518104,0.13745608387500302,0.0,True,FiM,1.9999995,216
mp-1518594,KSrGdWO6,-2.908840125725,0.029794036583311003,2.846999999999999,True,FM,7.0000001,216
mp-1518644,KSrHfBiO6,-2.644646899725,0.047828100250000005,1.1399,False,NM,0.0,216
mp-1523344,KSrLaMnO6,-2.341737810018104,0.21818500243333402,0.0,True,FiM,0.999999499999999,216
mp-1520117,KSrLaSeO6,-2.410850605459376,0.14184461379166302,2.1093,False,NM,0.0,216
mp-1522371,KSrLaWO6,-2.863351370224999,0.07706985508332401,2.962899999999999,False,NM,0.0,216
mp-1518490,KSrMnBiO6,-1.887934083518104,0.14800064300000101,0.0,True,FM,3.0346101,216
mp-1520965,KSrMnSnO6,-2.051306745018104,0.150800473499997,0.0,True,FiM,1.9999989,216
mp-1517627,KSrNbBiO6,-2.471943629724999,0.084429528000002,0.0,False,NM,0.0001797,216
mp-1516478,KSrNdFeO6,-2.194048922475,0.14667912262500202,0.0,True,FM,3.9999997,216
mp-1519756,KSrNdMnO6,-2.322874518268103,0.17982944549999902,0.0,True,FiM,0.9999996,216
mp-1517988,KSrNdSeO6,-2.384047295709374,0.14505252904166402,1.9635,False,NM,0.0,216
mp-1519208,KSrNdWO6,-2.854753604475,0.054199710916671,2.857999999999999,False,NM,0.0,216
mp-1516832,KSrPrBiO6,-2.260654396891667,0.125809875531247,0.0,False,NM,0.999999899999999,216
mp-1520110,KSrPrFeO6,-2.175010020891666,0.15311368512499202,0.0,True,FM,3.9999995,216
mp-1519627,KSrPrMnO6,-2.30150471168477,0.18813000906250002,0.0,True,FiM,0.9999996,216
mp-1519712,KSrPrNbO6,-2.8942240718916663,0.12268444112500002,0.0,False,NM,0.999999899999999,216
mp-1521788,KSrPrSbO6,-2.547078014891666,0.061876914375,0.0,False,NM,0.999999899999999,216
mp-1517350,KSrPrSeO6,-2.366415967126042,0.149614614604163,1.978899999999999,False,NM,0.0,216
mp-1519728,KSrPrWO6,-2.832795820891666,0.059081779958326,2.8602,False,NM,0.0,216
mp-1100429,KSrSb,-0.541590419083333,0.244617725784314,1.5750000000000002,False,NM,2.09e-05,216
mp-1517801,KSrSbWO6,-2.268816717725,0.134778983833328,1.3453,False,NM,0.0,216
mp-1520748,KSrSmFeO6,-2.225184434224999,0.135644892312488,0.0,True,FiM,4.0000002,216
mp-1520878,KSrSmMnO6,-2.356213903018104,0.16659134218750202,0.0,True,FiM,1.0,216
mp-1516725,KSrSmSeO6,-2.410330781459374,0.138870324729163,1.9386,False,NM,0.0,216
mp-1517057,KSrSmWO6,-2.8894737322250013,0.037268181208328005,2.8665000000000003,False,NM,0.0,216
mp-1522717,KSrSnBiO6,-2.007099296224999,0.09787256050000001,0.0,False,NM,0.0,216
mp-1521635,KSrTbBiO6,-2.356884887391666,0.08484484828124901,0.0,False,NM,1.0000001,216
mp-1522340,KSrTbSbO6,-2.6469327663916653,0.042974452218746004,0.0,False,NM,1.0078155,216
mp-1516327,KSrTbWO6,-2.9388034203916673,0.015632158875002,2.887399999999999,False,NM,0.0,216
mp-1516583,KSrYWO6,-2.934650456725001,0.016048269583315,2.8822,False,NM,0.0,216
mp-1518845,KSrZrBiO6,-2.575660291724999,0.041461660500001,1.078399999999999,False,NM,0.0,216
mp-631314,KTaPt,1.166402431805556,1.538287143027774,0.0,False,NM,0.0392041,216
mp-17838,KTb3F10,-4.291982605160713,0.0,6.9502,False,NM,0.0,225
mp-1521042,KTbEuGeO6,-2.558160411391667,0.269423421138895,0.0,True,FiM,5.0,216
mp-1522254,KTbEuNbO6,-3.035534906891667,0.24736734093749502,0.0,True,FM,6.0009088,216
mp-1516383,KTbEuSbO6,-2.679527902891666,0.201874091437506,0.0,True,FM,6.0004877,216
mp-1519524,KTbEuWO6,-2.907371293891667,0.070905465062502,0.4137,True,FM,7.0105412,216
mp-1522631,KTbNdSbO6,-2.800884641141665,0.16904876302083102,3.1416,False,NM,0.0,216
mp-1522191,KTbPrNbO6,-3.157931810558332,0.195994890375001,2.399899999999999,False,NM,0.0,216
mp-1520075,KTbPrSbO6,-2.814534210558333,0.141032847187499,3.1998,False,NM,0.0,216
mp-1520374,KTbSnWO6,-2.472534827891666,0.13734258158332702,2.4964,False,NM,0.0,216
mp-631473,KTi2Bi,0.6661523673958271,0.9200950680555521,0.0,False,NM,0.0008437999999990001,225
mp-1223218,KTi2BiO6,-2.7314645183916673,0.127870336125005,1.377,False,NM,0.0002701,225
mp-866169,KTl2Bi,-0.18777700597917102,0.0,0.0,False,NM,5e-07,225
mp-1205672,KTl2CrF6,-2.677724281391668,0.0,3.5979,True,FM,2.9999782,225
mp-1206641,KTl2GaF6,-2.640834894141668,0.0,4.5515,False,NM,0.0006010999999990001,225
mp-560959,KTl2MoF6,-2.535024284391668,0.0,2.4401,True,FM,3.0000082,225
mp-1111155,KTlBr3,-1.342039624116668,0.07723567325000101,0.9246000000000001,False,NM,0.0002096,225
mp-1111296,KTlCl3,-1.582047443116668,0.059074320500001005,1.097,False,NM,0.00040409999999900005,225
mp-1111295,KTlF3,-2.438736394116667,0.05428418670833501,1.9647000000000001,False,NM,0.00022349999999900002,225
mp-1110822,KTlI3,-0.9732104541166681,0.11789555600000001,0.0,False,NM,0.0211598,225
mp-1520212,KVBiWO6,-1.9857656017249998,0.181008061983326,0.0,True,FM,2.7230868,216
mp-2943,KY3F10,-4.253252260160714,0.0,6.9409,False,NM,0.0,225
mp-962072,KYSn,0.113269809250001,0.608531853560605,0.7193,False,NM,0.0006167999999990001,216
mp-1523077,KYSnWO6,-2.467767278224999,0.13048564333332902,2.5140000000000002,False,NM,0.0,216
mp-1185019,KYb3,0.630412345312496,0.630412345312496,0.0,True,FM,0.816086,225
mp-640562,KYb3F10,-4.349048140625001,0.0,0.0,False,NM,0.0,225
mp-1516831,KZr2BiO6,-2.784352396725,0.19708758387500802,0.7410000000000001,False,NM,0.0,225
mp-631345,KZr2Nb,1.006227499249998,1.006227499249998,0.0,False,NM,4.6e-05,225
mp-1518992,KZrGeBiO6,-2.349916942224999,0.19306918350000501,1.3028,False,NM,0.0,216
mp-1522688,KZrInWO6,-2.471966453391667,0.11584121958333601,0.48989999999999906,False,NM,2e-07,216
mp-1521496,KZrMnBiO6,-2.256004151518105,0.157698813729165,1.1158,True,FM,3.0004421,216
mp-1518641,KZrNbBiO6,-2.652124309725001,0.19164605949999902,0.0,False,NM,4.4000000000000006e-05,216
mp-1521463,KZrSnBiO6,-2.304411266225,0.18599702678666502,0.9464,False,NM,0.0,216
mp-1516231,KZrSnSbO6,-2.382344117225,0.147819703416668,2.7769,False,NM,0.0,216
mp-612118,Kr,0.007569553333333001,0.007569553333333001,7.1828,False,NM,0.0,225
mp-156,La,0.019361705000001003,0.019361705000001003,0.0,False,NM,1.4e-06,225
mp-1204948,La11Hg45,-0.389609972008916,0.00252078339286,0.0,False,NM,1.0854251,216
mp-866690,La17Al4(Si3N11)3,-1.5597999373015892,0.0,1.8766999999999991,False,NM,0.0002354,216
mp-1223565,La20Mn8Te7C12,-0.7666431112790411,0.0,0.0,True,FM,5.451662,225
mp-647363,La21Fe8Bi7C12,-0.530336658645835,0.0,0.0,True,FM,1.351772,225
mp-582023,La21Fe8Sb7C12,-0.551166405104167,0.0,0.0,True,FM,4.3314369,225
mp-607917,La21Fe8Sn7C12,-0.45204717791666704,0.0,0.0,True,FM,2.8245704,225
mp-1200955,La21Mn8Bi7C12,-0.54068630913434,0.0,0.0,True,FM,1.2156673,225
mp-1203312,La21Mn8Sb7C12,-0.63465115100934,0.0,0.0,True,FiM,1.420328499999999,225
mp-1201735,La21Mn8Sn7C12,-0.460605894238505,0.0,0.0,True,FM,7.7540749,225
mp-1185100,La2AgHg,-0.428156240625,0.00022019499999700003,0.0,False,NM,2.9900000000000005e-05,225
mp-862293,La2AgIr,-0.464119215416666,0.076005331249998,0.0,False,NM,0.000103899999999,225
mp-867798,La2AgRu,-0.207928977916666,0.052686168392856,0.0,False,NM,0.0038298,225
mp-867801,La2AgSn,-0.538420629166666,0.029417708937498004,0.0,True,FM,0.977118199999999,225
mp-1185143,La2CdHg,-0.38923174812500105,0.012150022500000001,0.0,False,NM,0.791955,225
mp-1185193,La2CdIn,-0.40886368166666504,0.0,0.0,False,NM,0.0301173,225
mp-862536,La2CuIr,-0.43945311750000104,0.071381616249998,0.0,False,NM,0.0005143,225
mp-862331,La2CuRu,-0.1796254525,0.051699880892856,0.0,False,NM,0.0025106,225
mp-1185602,La2GaAg,-0.46488699124999705,0.021751381249998,0.0,False,NM,0.2150732,225
mp-1078675,La2HfNiO6,-3.247802997999998,0.18799364937499502,2.043399999999999,True,FM,1.9991191,225
mp-1185195,La2InAg,-0.46014065625000106,0.002987935,0.0,False,NM,0.254233,225
mp-972960,La2IrAu,-0.7084981525,0.057108712500001005,0.0,False,NM,5e-05,225
mp-861916,La2IrPd,-0.737325275,0.031967371249999,0.0,False,NM,0.0007289999999990001,225
mp-1185014,La2MgAl,-0.23856943875000103,0.017585935625,0.0,False,NM,6.599999999999999e-06,225
mp-1185062,La2MgCd,-0.19325649625000002,0.010146166250001,0.0,False,NM,0.0008792,225
mp-1211235,La2MgNbO6,-3.3089463255,0.183569187416665,0.0,True,FM,0.9911603,225
mp-977187,La2MgTl,-0.26549694708333504,0.012027028416667002,0.0,False,NM,0.0073379,225
mp-1223208,La2MgZrO6,-3.5129807365,0.21379715112500003,2.9647,False,NM,0.000496,225
mp-1079517,La2MnNiO6,-2.7739587797931042,0.097283240666651,1.279699999999999,True,FM,4.9934595999999996,225
mp-1206064,La2NiMoO6,-2.634661562,0.22530974249999602,0.0,True,FM,3.9967153,225
mp-1205988,La2NiWO6,-2.651366125,0.321419476500004,0.0,True,FiM,0.0,225
mp-973099,La2PdRu,-0.44840262500000005,0.06777427642857001,0.0,False,NM,0.0016595,225
mp-1078601,La2ReNiO6,-2.60260337425,0.2504285115,0.282599999999998,True,FM,4.9908085,225
mp-1185018,La2RuAu,-0.45110806500000006,0.061383055178573,0.0,False,NM,0.0019402,225
mp-1185178,La2SnHg,-0.738844999374997,0.041683846250002,0.0,False,NM,0.000243,225
mp-1087477,La2TcNiO6,-2.654395983499999,0.092194945999999,0.0,True,FM,5.0011018,225
mp-1078893,La2TiCoO6,-3.140116769333334,0.19779298849999802,0.0,True,FM,2.9973855,225
mp-1079373,La2TiNiO6,-3.223166932333333,0.10399365625000101,0.0,True,FM,2.0000001,225
mp-1185050,La2TlAg,-0.336693293750004,0.0,0.0,False,NM,0.262498399999999,225
mp-867880,La2TlCd,-0.36793151833333604,0.0,0.0,True,FM,0.9943422999999991,225
mp-973572,La2TlHg,-0.45595820645834,0.0013906024999950002,0.0,True,FM,0.9851333,225
mp-1185194,La2TlIn,-0.456167927500004,0.003410504999997,0.0,False,NM,5.1900000000000015e-05,225
mp-973564,La2TlZn,-0.35245016833333703,0.014424927499996002,0.0,True,FM,0.995613099999999,225
mp-1078783,La2VReO6,-2.657909011250001,0.435796182468747,0.0,False,NM,0.0299999,225
mp-973957,La2ZnAg,-0.287038007500001,0.014379089999998,0.0,False,NM,0.054733,225