material_id,formula,formation_energy,ehull,band_gap,is_magnetic_x,magnetic_ordering,total_magnetization_x,spacegroup,heusler_type,is_magnetic_y,total_magnetization_y
mp-1185021,LaPmRu2,-0.097541503124999,0.002744884553573,0.0,False,NM,1.0600000000000002e-05,225,full,False,1.0600000000000002e-05
mp-1185094,LaPmTl2,-0.40243132479167,0.0,0.0,False,NM,0.0002696,225,full,False,0.0002696
mp-1185129,LaPmZn2,-0.334389218124997,0.0,0.0,False,NM,0.0008521,225,full,False,0.0008521
mp-973887,LaPrHg2,-0.567685697916672,0.0,0.0,True,FM,0.7843867,225,full,True,0.7843867
mp-1006057,LaPrIn2,-0.6270155366666651,0.012041219583331,0.0,False,NM,4.5e-06,225,full,False,4.5e-06
mp-1185045,LaPrIr2,-0.548091074166666,0.115389987375001,0.0,False,NM,2e-06,225,full,False,2e-06
mp-1185058,LaPrMg2,-0.088581189166665,0.007070323750002,0.0,False,NM,0.000512899999999,225,full,False,0.000512899999999
mp-1185089,LaPrTl2,-0.402013968333337,0.0,0.0,False,NM,0.000838299999999,225,full,False,0.000838299999999
mp-1185138,LaPrZn2,-0.307574546666666,0.0,0.0,False,NM,7.35e-05,225,full,False,7.35e-05
mp-631674,LaRe2Ag,0.6918312399999991,0.8305751274999971,0.0,False,NM,0.006366999999999,216,full,False,0.006366999999999
mp-631343,LaRe2W,0.618709356250001,0.618709356250001,0.0,False,NM,0.000182199999999,216,full,False,0.000182199999999
mp-631508,LaReB,1.127003035039687,1.431116302777781,0.0,False,NM,0.2343031,216,half,False,0.2343031
mp-961702,LaSbPt,-0.655499741666666,0.443621701149424,0.0,False,NM,0.0003941,216,half,False,0.0003941
mp-1185061,LaSmIr2,-0.613397045000001,0.095966630000001,0.0,False,NM,3.2e-06,225,full,False,3.2e-06
mp-1185603,LaSmMg2,-0.0812148075,0.011447158750002,0.0,False,NM,0.000127599999999,225,full,False,0.000127599999999
mp-1185038,LaSmTl2,-0.398615031666668,0.000111667500001,0.0,False,NM,0.003901,225,full,False,0.003901
mp-972949,LaSmZn2,-0.3156757675,0.007090907499998,0.0,False,NM,0.000488,225,full,False,0.000488
mp-867118,LaSnAu2,-0.731593967499998,0.0,0.0,False,NM,0.0003025,225,full,False,0.0003025
mp-867817,LaTlAg2,-0.267033852916667,0.0,0.0,False,NM,6e-07,225,full,False,6e-07
mp-867814,LaTlAu2,-0.612347314583337,0.0,0.0,False,NM,1.1e-06,225,full,False,1.1e-06
mp-972971,LaTlHg2,-0.401539215833337,0.005482015000003,0.0,False,NM,1.1e-06,225,full,False,1.1e-06
mp-1185130,LaTmMg2,-0.067569883750001,0.012567803124999,0.0,False,NM,3.8200000000000014e-05,225,full,False,3.8200000000000014e-05
mp-1185046,LaTmTl2,-0.35403725291667,0.005606385000003,0.0,False,NM,1.8e-05,225,full,False,1.8e-05
mp-1185136,LaYMg2,-0.075186923750001,0.01240372125,0.0,False,NM,2.6400000000000005e-05,225,full,False,2.6400000000000005e-05
mp-1185101,LaYZn2,-0.335831156249998,0.0204210875,0.0,False,NM,0.588486699999999,225,full,False,0.588486699999999
mp-865811,LaYbAg2,-0.288859117499999,0.034165747500001,0.0,False,NM,3e-06,225,full,False,3e-06
mp-1185027,LaYbAu2,-0.873191277500005,0.088638295624996,0.0,False,NM,1.25e-05,225,full,False,1.25e-05
mp-865859,LaYbCd2,-0.355919839999998,0.021662702499998,0.0,False,NM,0.0024498,225,full,False,0.0024498
mp-1185134,LaYbCu2,-0.17739955,0.064645588124999,0.0,False,NM,3e-06,225,full,False,3e-06
mp-865794,LaYbHg2,-0.546932408750002,0.029532195000001,0.0,False,NM,2.08e-05,225,full,False,2.08e-05
mp-1185064,LaYbMg2,-0.096266104999997,0.012988416249999,0.0,False,NM,7e-07,225,full,False,7e-07
mp-1185078,LaYbPd2,-0.8363138899999991,0.098396807499998,0.0,False,NM,1.1e-05,225,full,False,1.1e-05
mp-1185013,LaYbPt2,-1.216698624999999,0.164164088124998,0.0,False,NM,1.3400000000000002e-05,225,full,False,1.3400000000000002e-05
mp-1185052,LaYbRh2,-0.7970652425000001,0.140043502499999,0.0,False,NM,0.0629902,225,full,False,0.0629902
mp-1185086,LaYbTl2,-0.455358515,0.001968317500001,0.0,False,NM,1.1400000000000004e-05,225,full,False,1.1400000000000004e-05
mp-865833,LaYbZn2,-0.335202847499999,0.000901974999997,0.0,True,FM,0.2601205,225,full,True,0.2601205
mp-1185092,LaZn2Ag,-0.302387559374999,0.044811890000001,0.0,False,NM,3.6800000000000014e-05,225,full,False,3.6800000000000014e-05
mp-867836,LaZnAu2,-0.59507854875,0.038238573411123,0.0,False,NM,0.0045162,225,full,False,0.0045162
mp-1185001,Li2AcAl,-0.116891227222225,0.020023434374998,0.0,False,NM,0.0027772,225,full,False,0.0027772
mp-865897,Li2AcIn,-0.340779062708332,0.0,0.0,False,NM,2.35e-05,225,full,False,2.35e-05
mp-865915,Li2AcPb,-0.306289522291665,0.0,0.0,False,NM,3.5e-06,225,full,False,3.5e-06
mp-865913,Li2AcSn,-0.405510031041667,0.0,0.0,False,NM,1.3400000000000002e-05,225,full,False,1.3400000000000002e-05
mp-976333,Li2AcTl,-0.277484087708334,0.0,0.0,False,NM,3.8e-05,225,full,False,3.8e-05
mp-865879,Li2AgAu,-0.393914744583334,0.0,0.0,False,NM,4e-07,225,full,False,4e-07
mp-1184977,Li2AgBi,-0.371934438333333,0.046618474166667,0.0,False,NM,2e-07,225,full,False,2e-07
mp-569333,Li2AgBi,-0.395594653333333,0.022958259166667,0.0,False,NM,0.0,216,full,False,2e-07
mp-1184969,Li2AgGe,-0.241829315833333,0.021377205434782,0.0,False,NM,2.7e-06,225,full,False,2.7e-06
mp-865874,Li2AgHg,-0.288340681458333,0.0,0.0,False,NM,1.5700000000000002e-05,225,full,False,1.5700000000000002e-05
mp-1184979,Li2AgPb,-0.250680347083331,0.014386744999993,0.0,False,NM,0.001789,225,full,False,0.001789
mp-30349,Li2AgPb,-0.265067092083328,0.0,0.0,False,NM,3e-06,216,full,False,0.001789
mp-865987,Li2AgPd,-0.310142087083333,0.0,0.0,False,NM,2e-07,225,full,False,2e-07
mp-16238,Li2AgSb,-0.5181467695833331,0.0,0.1478,False,NM,0.0,216,full,False,0.0
mp-30350,Li2AgSn,-0.310074078333332,0.057912874999999,0.0,False,NM,0.000208799999999,225,full,False,0.000208799999999
mp-567347,Li2AgSn,-0.367986953333332,0.0,0.0,False,NM,6e-07,216,full,False,0.000208799999999
mp-31168,Li2AlAg,-0.247168274583334,0.0,0.0,False,NM,4e-07,216,full,False,4e-07
mp-1222668,Li2AlGa,-0.311139873333332,0.0,0.0,False,NM,4.97e-05,216,full,False,4.97e-05
mp-30816,Li2AlPd,-0.5318623033333321,0.0,0.0,False,NM,1.05e-05,216,full,False,1.05e-05
mp-30818,Li2AlPt,-0.7543592208333331,0.0,0.0,False,NM,2.7e-06,216,full,False,2.7e-06
mp-30820,Li2AlRh,-0.5350247866666661,0.053718518333333,0.0,False,NM,9.6e-06,216,full,False,9.6e-06
mp-1184982,Li2BiAu,-0.464153572916668,0.026453100000001,0.0,False,NM,1.86e-05,225,full,False,1.86e-05
mp-567076,Li2BiAu,-0.471929845416667,0.018676827500001,0.0,False,NM,0.0003134,216,full,False,1.86e-05
mp-1185028,Li2CaAl,-0.128653397946428,0.019565215833333,0.0,False,NM,0.0138599,225,full,False,0.0138599
mp-865986,Li2CaGe,-0.422755445416666,0.002683509583333,0.1008,False,NM,8.5e-06,225,full,False,8.5e-06
mp-865890,Li2CaIn,-0.354244080833332,0.0,0.0,False,NM,0.0003561,225,full,False,0.0003561
mp-865892,Li2CaPb,-0.418397809166666,0.0,0.0,False,NM,2.2200000000000004e-05,225,full,False,2.2200000000000004e-05
mp-865965,Li2CaSi,-0.301334511666666,0.0,0.0,False,NM,2e-07,225,full,False,2e-07
mp-865964,Li2CaSn,-0.5072434679166661,0.0,0.0,False,NM,7.299999999999999e-06,225,full,False,7.299999999999999e-06
mp-1185010,Li2CaTl,-0.308172815833334,0.005285529999998,0.0,False,NM,0.0002427,225,full,False,0.0002427
mp-1184976,Li2CdAg,-0.216974159583333,0.0111268925,0.0,False,NM,1e-06,225,full,False,1e-06
mp-865577,Li2CdAu,-0.435236238333331,0.0,0.0,False,NM,2.8e-06,225,full,False,2.8e-06
mp-1184983,Li2CdBi,-0.386866282083332,0.040163262500012,0.0,False,NM,3e-07,225,full,False,3e-07
mp-10686,Li2CdGe,-0.248282300416665,0.018787014458332,0.0,False,NM,3e-06,225,full,False,3e-06
mp-976114,Li2CdHg,-0.325240707708335,0.002678721249999,0.0,False,NM,5.799999999999999e-06,225,full,False,5.799999999999999e-06
mp-1185034,Li2CdIn,-0.314233928333333,0.042107882499999,0.0,False,NM,1.699999999999999e-06,225,full,False,1.699999999999999e-06
mp-1222671,Li2CdIn,-0.356341810833333,0.0,0.0,False,NM,2.8e-06,216,full,False,1.699999999999999e-06
mp-11304,Li2CdPb,-0.230008844166665,0.030670387499998,0.0,False,NM,2e-07,216,full,False,2e-07
mp-11305,Li2CdPb,-0.260679231666663,0.0,0.0,False,NM,3e-07,225,full,False,2e-07
mp-865582,Li2CdPd,-0.373887099166666,0.0,0.0,False,NM,6.5e-06,225,full,False,6.5e-06
mp-1184966,Li2CdPt,-0.444232986666665,0.00203935125,0.0,False,NM,3e-07,225,full,False,3e-07
mp-16271,Li2CdSb,-0.439461564166665,0.047925216590909,0.0,False,NM,0.0004093,225,full,False,0.0004093
mp-12580,Li2CdSn,-0.311749965416665,0.0,0.0,False,NM,2e-07,225,full,False,2e-07
mp-865629,Li2CeAl,-0.101849051166665,0.095909683333333,0.0,True,FM,0.8405391,225,full,True,0.8405391
mp-1184980,Li2CeGa,-0.221387993333333,0.091461185416665,0.0,True,FM,1.0536717,225,full,True,1.0536717
mp-1185247,Li2CeIn,-0.281301252351189,0.036984081071429,0.0,True,FM,1.0062219,225,full,True,1.0062219
mp-865932,Li2CePb,-0.257140479166665,0.05367610107143,0.0,True,FM,1.2560497,225,full,True,1.2560497
mp-1185039,Li2CeSn,-0.375663582916665,0.047086038596591,0.0,True,FM,1.2431297,225,full,True,1.2431297
mp-865971,Li2CeTl,-0.210576652500002,0.060354812499998,0.0,True,FM,1.0131869,225,full,True,1.0131869
mp-1206748,Li2CoSb,-0.143023661388888,0.3748165475,0.0,True,FM,1.8919601,225,full,True,1.8919601
mp-35841,Li2CuGe,-0.319751125416666,0.0,0.0,False,NM,2.499999999999999e-06,216,full,False,2.499999999999999e-06
mp-15988,Li2CuSb,-0.485565228333332,0.022338662499999,0.4535,False,NM,0.0,216,full,False,0.0
mp-30591,Li2CuSn,-0.325861522916666,0.0,0.0,False,NM,1e-07,216,full,False,1e-07
mp-865580,Li2DyIn,-0.380604869583333,0.0,0.0,False,NM,6e-07,225,full,False,6e-07
mp-865581,Li2DyTl,-0.309952047083335,0.0,0.0,False,NM,0.0,225,full,False,0.0
mp-865579,Li2ErIn,-0.357171304166666,0.0,0.0,False,NM,0.0,225,full,False,0.0
mp-865573,Li2ErTl,-0.208945395000001,0.006769102777779,0.0,False,NM,6.85e-05,225,full,False,6.85e-05
mp-865067,Li2EuGe,-0.389706624166668,0.020356269895834,0.0,True,FM,7.0086168,225,full,True,7.0086168
mp-1184914,Li2EuIn,-0.233964614583333,0.021770667788462,0.0,True,FM,7.0213955,225,full,True,7.0213955
mp-867474,Li2EuSn,-0.485854309166667,0.0,0.0,True,FM,7.0252224,225,full,True,7.0252224
mp-1222659,Li2GaAg,-0.308004299583334,0.0,0.0,False,NM,2.8e-06,216,full,False,2.8e-06
mp-30381,Li2GaAu,-0.552045800833333,0.0,0.0,False,NM,1e-06,216,full,False,1e-06
mp-31441,Li2GaIr,-0.476742215833333,0.0,0.0,False,NM,2.899999999999999e-06,216,full,False,2.899999999999999e-06
mp-570528,Li2GaIr,-0.256075713333331,0.220666502500002,0.0,False,NM,0.0021879,225,full,False,2.899999999999999e-06
mp-3201,Li2GaPd,-0.556428800833332,0.0,0.0,False,NM,1.5e-06,216,full,False,1.5e-06
mp-3726,Li2GaPt,-0.659772823541666,0.0,0.0,False,NM,4e-06,216,full,False,4e-06
mp-2988,Li2GaRh,-0.487105041041666,0.0,0.0,False,NM,7.499999999999998e-06,216,full,False,7.499999999999998e-06
mp-631316,Li2GaSb,-0.498415702137679,0.051258123369565,0.154199999999999,False,NM,0.0007231,225,full,False,0.0007231
mp-1222654,Li2GaSi,-0.088089836041666,0.162117223616071,0.0,False,NM,0.012305799999999,216,full,False,0.012305799999999
mp-865483,Li2GdIn,-0.355648443333333,0.0,0.0,True,FM,7.1674644,225,full,True,7.1674644
mp-865349,Li2GdTl,-0.287957388333332,0.0,0.0,True,FM,7.1463928,225,full,True,7.1463928
mp-2935,Li2GeAu,-0.485090115416667,0.0,0.0,False,NM,1e-07,216,full,False,1e-07
mp-1222657,Li2GePd,-0.553581462916666,0.0,0.0,False,NM,3.810000000000001e-05,216,full,False,3.810000000000001e-05
mp-30080,Li2GePd,-0.404475495416666,0.1491059675,0.0,False,NM,0.002322599999999,225,full,False,3.810000000000001e-05
mp-1184951,Li2GePt,-0.438798027916666,0.013332047857142,0.0,False,NM,1e-06,225,full,False,1e-06
mp-865714,Li2HgAu,-0.474955247708333,0.0,0.0,False,NM,2.11e-05,225,full,False,2.11e-05
mp-1184970,Li2HgBi,-0.416244851458333,0.002308061041667,0.0,False,NM,3e-07,225,full,False,3e-07
mp-16341,Li2HgGe,-0.273567536041668,0.052236980624999,0.0,False,NM,2.17e-05,225,full,False,2.17e-05
mp-865731,Li2HgPd,-0.420430844791668,0.0,0.0,False,NM,2.39e-05,225,full,False,2.39e-05
mp-865622,Li2HoIn,-0.271620682083331,0.0,0.0,False,NM,5.4e-06,225,full,False,5.4e-06
mp-865624,Li2HoTl,-0.300348039583333,0.0,0.0,False,NM,2.4e-06,225,full,False,2.4e-06
mp-30344,Li2InAg,-0.330155377083331,0.0,0.0,False,NM,1e-07,216,full,False,1e-07
mp-30392,Li2InAu,-0.5411552658333321,0.0,0.0,False,NM,1.3e-06,216,full,False,1.3e-06
mp-1184972,Li2InBi,-0.407213774583333,0.0260256635,0.000399999999999,False,NM,0.0,225,full,False,0.0
mp-1184978,Li2InHg,-0.362242510208332,0.008923137499998,0.0,False,NM,3.299999999999999e-06,225,full,False,3.299999999999999e-06
mp-31443,Li2InIr,-0.345496073333333,0.009607000749998,0.0,False,NM,1.5e-06,216,full,False,1.5e-06
mp-567200,Li2InIr,-0.242386458333331,0.112716615749999,0.0,False,NM,2e-07,225,full,False,1.5e-06
mp-1184985,Li2InPb,-0.259459083333331,0.002770986447369,0.0,False,NM,3e-07,225,full,False,3e-07
mp-1210747,Li2InPb,-0.160476413333332,0.101753656447368,0.0,False,NM,0.0068404,216,full,False,3e-07
mp-21029,Li2InPd,-0.520561748333333,0.0,0.0,False,NM,0.000129899999999,216,full,False,0.000129899999999
mp-21026,Li2InPt,-0.6413059658333321,0.0,0.0,False,NM,7e-06,216,full,False,7e-06
mp-31442,Li2InRh,-0.417349363333332,0.0,0.0,False,NM,2.1e-06,216,full,False,2.1e-06
mp-1222655,Li2InSi,-0.034526865833333,0.191011794494047,0.0,False,NM,0.0145997,216,full,False,0.0145997
mp-865737,Li2InSn,-0.304122734583331,0.0,0.0,False,NM,0.0,225,full,False,0.0
mp-866193,Li2LaIn,-0.411947417083332,0.0,0.111699999999999,False,NM,5e-07,225,full,False,5e-07
mp-861893,Li2LaPb,-0.379026470416668,0.0,0.0,False,NM,0.0025453,225,full,False,0.0025453
mp-861894,Li2LaSn,-0.490247104166666,0.0,0.0,False,NM,0.0002117,225,full,False,0.0002117
mp-866195,Li2LaTl,-0.264985338750002,0.0,0.0,False,NM,3.4300000000000014e-05,225,full,False,3.4300000000000014e-05
mp-1184968,Li2LuIn,-0.329717009999999,0.001323564464286,9.999999999976698e-05,False,NM,4.9000000000000005e-06,225,full,False,4.9000000000000005e-06
mp-1222653,Li2MgAg,-0.174071358333332,0.0021566275,0.0,False,NM,0.0026563,216,full,False,0.0026563
mp-1222650,Li2MgAu,-0.431082720416665,0.002962325000001,0.0,False,NM,3.4900000000000015e-05,216,full,False,3.4900000000000015e-05
mp-1222662,Li2MgBi,-0.268970265416667,0.144584788124999,0.0,False,NM,0.0269906,216,full,False,0.0269906
mp-1222648,Li2MgCd,-0.165717322916666,0.0,0.0,False,NM,6.690000000000001e-05,216,full,False,6.690000000000001e-05
mp-866194,Li2MgCd,-0.151988070416666,0.0137292525,0.0,False,NM,2.2e-06,225,full,False,6.690000000000001e-05
mp-1222647,Li2MgGa,-0.229666107291666,0.0,0.0,False,NM,5.5e-06,216,full,False,5.5e-06
mp-1222651,Li2MgGe,-0.323198681666666,0.0,0.0,False,NM,1.1e-06,216,full,False,1.1e-06
mp-973325,Li2MgGe,-0.271959936666666,0.051238745,0.0,False,NM,0.0002846,225,full,False,1.1e-06
mp-1222646,Li2MgHg,-0.269680023541667,0.0,0.0,False,NM,1e-07,216,full,False,1e-07
mp-973343,Li2MgHg,-0.247367838541668,0.022312184999999,0.0,False,NM,0.0004829,225,full,False,1e-07
mp-12128,Li2MgIn,-0.216344614583332,0.0,0.0,False,NM,5e-07,225,full,False,5e-07
mp-1222652,Li2MgPb,-0.256097672916665,0.0,0.0,False,NM,8e-07,216,full,False,8e-07
mp-30758,Li2MgPb,-0.227595612916668,0.028502059999997,0.0,False,NM,1.05e-05,225,full,False,8e-07
mp-1222660,Li2MgSb,-0.361431145416666,0.213575301874999,0.0,False,NM,0.0098584,216,full,False,0.0098584
mp-1018009,Li2MgSi,-0.210014079166666,0.010541068124999,0.143299999999999,False,NM,0.0,216,full,False,0.0
mp-569174,Li2MgSi,-0.195703806041666,0.024851341249999,0.0,False,NM,0.001491999999999,225,full,False,0.0
mp-1222615,Li2MgSn,-0.341448874166666,0.0,0.047499999999999,False,NM,9e-07,216,full,False,9e-07
mp-865935,Li2MgSn,-0.304543381666667,0.036905492499998,0.0,False,NM,1.16e-05,225,full,False,9e-07
mp-1222613,Li2MgTl,-0.202913963750001,0.0,0.0,False,NM,1.3200000000000002e-05,216,full,False,1.3200000000000002e-05
mp-2987,Li2MgTl,-0.17824431875,0.024669645000001,0.0,False,NM,1.6e-06,225,full,False,1.3200000000000002e-05
mp-1222610,Li2MgZn,-0.123768297916666,0.011276581249999,0.0,False,NM,6.099999999999997e-06,216,full,False,6.099999999999997e-06
mp-866178,Li2NdAl,-0.227230827708332,0.000458898541666,0.0,False,NM,3e-07,225,full,False,3e-07
mp-1184986,Li2NdGa,-0.329232229791664,0.017334358333334,0.134999999999999,False,NM,2.4100000000000003e-05,225,full,False,2.4100000000000003e-05
mp-866181,Li2NdIn,-0.411125192708333,0.0,0.0,False,NM,0.0,225,full,False,0.0
mp-1184981,Li2NdPb,-0.347294573541665,0.020309707397059,0.0,False,NM,0.0009391,225,full,False,0.0009391
mp-866179,Li2NdTl,-0.258893231875,0.0,0.0,False,NM,8e-07,225,full,False,8e-07
mp-1184967,Li2PbAu,-0.385854824166665,0.02119809,0.0,False,NM,0.0005298,225,full,False,0.0005298
mp-30403,Li2PbAu,-0.402785434166665,0.004267480000001,0.0,False,NM,8.7e-06,216,full,False,0.0005298
mp-866176,Li2PdAu,-0.512904950833331,0.0,0.0,False,NM,0.0,225,full,False,0.0
mp-1222614,Li2PdPb,-0.436553586666666,0.0,0.0,False,NM,2e-07,216,full,False,2e-07
mp-861651,Li2PdPb,-0.360940101666665,0.075613485000001,0.0,False,NM,1.1e-06,225,full,False,2e-07
mp-862929,Li2PmAl,-0.229276615208334,0.0,0.0,False,NM,4e-07,225,full,False,4e-07
mp-983460,Li2PmGa,-0.334400625208333,0.0,0.163499999999999,False,NM,8.7e-06,225,full,False,8.7e-06
mp-983425,Li2PmGe,-0.376140887291667,0.005180114999999,0.0,False,NM,7.599999999999997e-06,225,full,False,7.599999999999997e-06
mp-862930,Li2PmIn,-0.410525465208333,0.0,0.0,False,NM,3e-07,225,full,False,3e-07
mp-862948,Li2PmPb,-0.338030243541664,0.0,0.0,False,NM,0.000185499999999,225,full,False,0.000185499999999
mp-862946,Li2PmSi,-0.284081806041667,0.0028136074053,0.0,False,NM,1.2e-06,225,full,False,1.2e-06
mp-862935,Li2PmSn,-0.459683909791666,0.0,0.0,False,NM,8.6e-05,225,full,False,8.6e-05
mp-862934,Li2PmTl,-0.342283045208333,0.0,0.0,False,NM,0.0,225,full,False,0.0
mp-861657,Li2PrAl,-0.221982791249999,0.0,0.0,False,NM,6e-07,225,full,False,6e-07
mp-1185017,Li2PrGa,-0.323365633749999,0.013295580416667,0.0693,False,NM,2e-06,225,full,False,2e-06
mp-866196,Li2PrIn,-0.408762071249999,0.0,0.0,False,NM,1e-07,225,full,False,1e-07
mp-866197,Li2PrPb,-0.352258437083332,0.006741105142156,0.0,False,NM,2.1e-06,225,full,False,2.1e-06
mp-865715,Li2PrTl,-0.341162556249997,0.0,0.0,False,NM,2.899999999999999e-06,225,full,False,2.899999999999999e-06
mp-30404,Li2SbAu,-0.600052838333333,0.0,0.0,False,NM,4e-07,216,full,False,4e-07
mp-10180,Li2SbPd,-0.713076248333331,0.0,0.0,False,NM,1e-07,216,full,False,1e-07
mp-3158,Li2SbPt,-0.7628624933333331,0.0,0.0,False,NM,1e-07,216,full,False,1e-07
mp-1184974,Li2ScIn,-0.328608302083333,0.013468868214285,0.071799999999999,False,NM,1.15e-05,225,full,False,1.15e-05
mp-1222602,Li2SiAu,-0.456587886666666,0.0,0.0,False,NM,0.0002845,216,full,False,0.0002845
mp-1184988,Li2SmAl,-0.217408018541666,0.017406854895833,0.110399999999999,False,NM,0.0001363,225,full,False,0.0001363
mp-865882,Li2SmIn,-0.404347580833333,0.0,0.0,False,NM,8e-07,225,full,False,8e-07
mp-866200,Li2SmTl,-0.25029464625,0.0,0.0,False,NM,5e-07,225,full,False,5e-07
mp-30405,Li2SnAu,-0.527563775416666,0.0,0.0,False,NM,2e-07,216,full,False,2e-07
mp-12094,Li2SnGe,-0.154836549166666,0.148497320624999,0.0,False,NM,4.68e-05,216,full,False,4.68e-05
mp-975578,Li2SnHg,-0.338322271041668,0.010015364999999,0.0,False,NM,1e-07,225,full,False,1e-07
mp-1001914,Li2SnIr,-0.233743280416666,0.179693857499998,0.0,False,NM,0.0013625,225,full,False,0.0013625
mp-1222612,Li2SnIr,-0.413437137916664,0.0,0.0,False,NM,1e-06,216,full,False,0.0013625
mp-1184991,Li2SnPb,-0.297700557916666,0.0011723175,0.0,False,NM,6.3e-06,225,full,False,6.3e-06
mp-1206680,Li2SnPd,-0.466714865416665,0.119637115,0.0,False,NM,0.0005365,225,full,False,0.0005365
mp-1222608,Li2SnPd,-0.586351980416666,0.0,0.0,False,NM,6.799999999999997e-06,216,full,False,0.0005365
mp-1222607,Li2SnPt,-0.6521044904166641,0.0,0.0,False,NM,1e-06,216,full,False,1e-06
mp-866202,Li2SnPt,-0.478891897916664,0.1732125925,0.0,False,NM,4e-07,225,full,False,1e-06
mp-1207195,Li2TiBi,-0.043698443472219,0.418288624722222,0.0,True,FM,3.0011005,225,full,True,3.0011005
mp-1222611,Li2TlAg,-0.236424752083333,0.0,0.0,False,NM,1e-07,216,full,False,1e-07
mp-865666,Li2TlAg,-0.227884062083337,0.008540689999978,0.0,False,NM,4.4e-06,225,full,False,1e-07