material_id,formula,formation_energy,ehull,band_gap,is_magnetic_x,magnetic_ordering,total_magnetization_x,spacegroup,heusler_type,is_magnetic_y,total_magnetization_y
mp-862742,Pm2ZnGe,-0.587247632500002,0.0,0.0,False,NM,8.599999999999999e-06,225,full,False,8.599999999999999e-06
mp-982387,Pm2ZnHg,-0.440175434375003,0.0,0.0,True,FM,0.7232715,225,full,True,0.7232715
mp-1186506,Pm2ZnIn,-0.485854799999998,0.0,0.0,False,NM,6.900000000000002e-05,225,full,False,6.900000000000002e-05
mp-862744,Pm2ZnIr,-0.5779780925000001,0.0,0.0,False,NM,1.33e-05,225,full,False,1.33e-05
mp-983236,Pm2ZnOs,-0.216994472500001,0.0,0.0,False,NM,6.799999999999997e-06,225,full,False,6.799999999999997e-06
mp-862727,Pm2ZnPb,-0.496620835000001,0.0,0.0,False,NM,5.9000000000000025e-05,225,full,False,5.9000000000000025e-05
mp-983154,Pm2ZnPt,-0.6883564187499981,0.0,0.0,False,NM,2.2e-06,225,full,False,2.2e-06
mp-983229,Pm2ZnRh,-0.499349341249998,0.0,0.0,False,NM,7.099999999999996e-06,225,full,False,7.099999999999996e-06
mp-862728,Pm2ZnRu,-0.256387426249998,0.0,0.0,False,NM,0.007930399999999,225,full,False,0.007930399999999
mp-862733,Pm2ZnSi,-0.48420925625,0.0,0.0,False,NM,3e-07,225,full,False,3e-07
mp-862734,Pm2ZnSn,-0.577885615000003,0.0,0.0,False,NM,2e-06,225,full,False,2e-06
mp-862876,PmAg2Pb,-0.324458334375002,0.0,0.0,False,NM,0.0,225,full,False,0.0
mp-862877,PmAg2Sn,-0.405615751875004,0.0,0.0,False,NM,1.6e-06,225,full,False,1.6e-06
mp-862872,PmAgAu2,-0.6382697956249991,0.0,0.0,False,NM,9.8e-06,225,full,False,9.8e-06
mp-862874,PmAgHg2,-0.421870061874997,0.0,0.0,False,NM,1.3e-06,225,full,False,1.3e-06
mp-862837,PmAlAg2,-0.326297171874998,0.0,0.0,False,NM,8e-07,225,full,False,8e-07
mp-862836,PmAlAu2,-0.7121874918749991,0.012212182857147,0.0,False,NM,1e-07,225,full,False,1e-07
mp-862838,PmAlCu2,-0.310037424374998,0.0,0.0,False,NM,3e-07,225,full,False,3e-07
mp-862879,PmBiAu2,-0.6515261356249981,0.0,0.0,False,NM,2.899999999999999e-06,225,full,False,2.899999999999999e-06
mp-862880,PmBiPd2,-0.7503148431249961,0.0,0.0,False,NM,1.1e-06,225,full,False,1.1e-06
mp-973757,PmBiRh2,-0.499080320624997,0.092158152321424,0.0,False,NM,0.0095034,225,full,False,0.0095034
mp-862889,PmCdAg2,-0.288498779375,0.0,0.0,False,NM,1.8700000000000004e-05,225,full,False,1.8700000000000004e-05
mp-862891,PmCdAu2,-0.715495366874996,0.0,0.0,False,NM,6.7e-06,225,full,False,6.7e-06
mp-1186550,PmCdCu2,-0.173834951874997,0.020622373333338,0.0,False,NM,6.099999999999997e-06,225,full,False,6.099999999999997e-06
mp-862892,PmCdHg2,-0.478079350625002,0.0,0.0,False,NM,6e-07,225,full,False,6e-07
mp-862898,PmCdPd2,-0.6538971368749931,0.0,0.0,False,NM,0.0,225,full,False,0.0
mp-862897,PmCdPt2,-0.729889446875002,0.0,0.0,False,NM,2.7e-06,225,full,False,2.7e-06
mp-862896,PmCdRh2,-0.509528406874999,0.047890462499999,0.0,False,NM,1.1e-06,225,full,False,1.1e-06
mp-1186567,PmCu2Si,-0.429390709638717,0.011396790569619,0.0,False,NM,0.0004683,225,full,False,0.0004683
mp-862900,PmCu2Sn,-0.371424699375001,0.0,0.0,False,NM,2.7e-06,225,full,False,2.7e-06
mp-1186555,PmDyAl2,-0.424920303124999,0.028448150624996,0.0,False,NM,5.4e-06,225,full,False,5.4e-06
mp-983426,PmDyCu2,-0.207095523125001,0.000230974583327,0.0,False,NM,5e-07,225,full,False,5e-07
mp-983427,PmDyHg2,-0.571487456874997,0.0,0.0,False,NM,0.001561699999999,225,full,False,0.001561699999999
mp-983428,PmDyIn2,-0.610364498124997,0.0,0.0,False,NM,5e-07,225,full,False,5e-07
mp-862902,PmDyMg2,-0.075224409791665,0.0,0.0,False,NM,3.9e-05,225,full,False,3.9e-05
mp-984549,PmDyRh2,-0.767787562291665,0.0,0.0,False,NM,8.1e-05,225,full,False,8.1e-05
mp-983429,PmDyRu2,-0.216377239791664,0.025600880000001,0.0,False,NM,8.5e-06,225,full,False,8.5e-06
mp-1186556,PmDyTl2,-0.474491138125003,0.0,0.0,False,NM,0.0005486,225,full,False,0.0005486
mp-1186553,PmDyZn2,-0.358700545624998,0.0,0.0,False,NM,0.0051354,225,full,False,0.0051354
mp-1186559,PmErAl2,-0.417013890208334,0.027150740833331,0.0,False,NM,5.8800000000000006e-05,225,full,False,5.8800000000000006e-05
mp-984335,PmErIn2,-0.589195662708331,0.0,0.0,False,NM,7e-07,225,full,False,7e-07
mp-1186560,PmErPd2,-0.8661148052083331,0.0,0.0,False,NM,2.2800000000000005e-05,225,full,False,2.2800000000000005e-05
mp-1186566,PmErTl2,-0.342575771041668,0.0,0.0,False,NM,0.0001148,225,full,False,0.0001148
mp-1186562,PmErZn2,-0.356873367708331,0.0,0.0,True,FM,0.4488717,225,full,True,0.4488717
mp-1186569,PmEuHg2,-0.5833015543749981,0.0,0.0,True,FM,7.289898,225,full,True,7.289898
mp-1186575,PmEuPd2,-0.753076033124997,0.0,0.0,True,FM,7.1399263,225,full,True,7.1399263
mp-1186583,PmEuPt2,-0.989813320625004,0.0,0.0,True,FM,7.0134767,225,full,True,7.0134767
mp-1186577,PmEuRh2,-0.507044283125001,0.0,0.0,True,FM,6.6246903,225,full,True,6.6246903
mp-1186579,PmEuZn2,-0.277409433125003,0.0,0.0,True,FM,7.1770092,225,full,True,7.1770092
mp-862903,PmGaAg2,-0.32887987145834,0.020437802500001,0.0,False,NM,0.0003379,225,full,False,0.0003379
mp-862905,PmGaAu2,-0.669522506874997,0.033916412083343,0.0,False,NM,9.7e-06,225,full,False,9.7e-06
mp-862906,PmGaCu2,-0.305898774375,0.0,0.0,False,NM,4.7e-06,225,full,False,4.7e-06
mp-1186574,PmGaPd2,-0.7240823393749981,0.04975450625,0.0,False,NM,8.8e-06,225,full,False,8.8e-06
mp-1186573,PmGaRh2,-0.673426958749999,0.0,0.0,False,NM,6e-07,225,full,False,6e-07
mp-1186619,PmGdAl2,-0.4161829385,0.021026969375,0.0,True,FM,7.0483764,225,full,True,7.0483764
mp-1186596,PmGdCu2,-0.154377051875002,0.0,0.0,True,FM,7.2037864,225,full,True,7.2037864
mp-1186623,PmGdHg2,-0.559583213125009,0.0,0.0,True,FM,8.4591122,225,full,True,8.4591122
mp-1186624,PmGdIn2,-0.476022030208332,0.0,0.0,True,FM,7.1801804,225,full,True,7.1801804
mp-1232424,PmGdMg2,-0.084720899374999,0.005874369999999,0.0,True,FM,8.5503151,225,full,True,8.5503151
mp-862909,PmGeAu2,-0.5644572468750011,0.096759646388896,0.0,False,NM,7.599999999999997e-06,225,full,False,7.599999999999997e-06
mp-1186576,PmGePd2,-0.6631933831249991,0.015661453749998,0.0,False,NM,4.7e-06,225,full,False,4.7e-06
mp-862912,PmHgAu2,-0.654513036250001,0.0,0.0,False,NM,2.499999999999999e-06,225,full,False,2.499999999999999e-06
mp-862913,PmHgRh2,-0.442916833749997,0.114502035625001,0.0,False,NM,4e-07,225,full,False,4e-07
mp-1186588,PmHoAl2,-0.422310895624999,0.027548516145831,0.0,False,NM,2.8e-06,225,full,False,2.8e-06
mp-1186595,PmHoCu2,-0.210939768124998,0.0,0.0,False,NM,7.38e-05,225,full,False,7.38e-05
mp-1186591,PmHoIn2,-0.459467516458333,0.0,0.0,False,NM,3.15e-05,225,full,False,3.15e-05
mp-1186598,PmHoIr2,-0.7224779306249981,0.0,0.0,True,FiM,0.3438595,225,full,True,0.3438595
mp-862918,PmHoMg2,-0.071573295624998,0.0,0.0,False,NM,0.000100599999999,225,full,False,0.000100599999999
mp-1186592,PmHoRh2,-0.7796415706249981,0.0,0.0,False,NM,0.000107799999999,225,full,False,0.000107799999999
mp-1186586,PmHoRu2,-0.229320918125,0.025333501249997,0.0,False,NM,3.9e-06,225,full,False,3.9e-06
mp-1186589,PmHoTl2,-0.463789278124998,0.0,0.0,False,NM,0.0002489,225,full,False,0.0002489
mp-1186594,PmHoZn2,-0.328307593124998,0.0,0.0,False,NM,0.0011045,225,full,False,0.0011045
mp-862923,PmInAg2,-0.425574361875,0.0,0.0,False,NM,6e-06,225,full,False,6e-06
mp-862917,PmInAu2,-0.785680726875,0.0,0.0,False,NM,2.8e-06,225,full,False,2.8e-06
mp-862916,PmInCu2,-0.347931624374999,0.0,0.0,False,NM,0.0,225,full,False,0.0
mp-862919,PmInHg2,-0.474818243125,0.007462305000011,0.0,False,NM,0.0,225,full,False,0.0
mp-862922,PmInNi2,-0.288130974374997,0.0,0.0,False,NM,0.0001635,225,full,False,0.0001635
mp-862924,PmInPd2,-0.798036106874999,0.0,0.0,False,NM,4.7e-06,225,full,False,4.7e-06
mp-862925,PmInPt2,-0.919302971874998,0.0,0.0,False,NM,2.299999999999998e-06,225,full,False,2.299999999999998e-06
mp-862921,PmInRh2,-0.7133583468750011,0.0,0.0,False,NM,2.7e-06,225,full,False,2.7e-06
mp-1186604,PmLuAl2,-0.406102203541664,0.024871883958333,0.0,False,NM,1.899999999999999e-06,225,full,False,1.899999999999999e-06
mp-1186606,PmLuIn2,-0.561200213541663,0.0,0.0,False,NM,3.96e-05,225,full,False,3.96e-05
mp-1186613,PmLuMg2,-0.063242918541666,0.007339684583332,0.0,False,NM,4.06e-05,225,full,False,4.06e-05
mp-1186607,PmLuTl2,-0.315084182708334,0.0,0.0,False,NM,0.0001259,225,full,False,0.0001259
mp-1186608,PmLuZn2,-0.361856911041666,0.0,0.0,False,NM,0.00812,225,full,False,0.00812
mp-1186616,PmMg2Sc,-0.050665650624999,0.019916952499998,0.0,False,NM,3.52e-05,225,full,False,3.52e-05
mp-862936,PmMgAg2,-0.288774393958333,0.0,0.0,False,NM,2.6800000000000004e-05,225,full,False,2.6800000000000004e-05
mp-862933,PmMgAu2,-0.739687750625001,0.0,0.0,False,NM,9.499999999999994e-06,225,full,False,9.499999999999994e-06
mp-862939,PmMgCd2,-0.307593135624999,0.0,0.0,False,NM,2.07e-05,225,full,False,2.07e-05
mp-862938,PmMgHg2,-0.462490086875003,0.0,0.0,False,NM,1.4e-06,225,full,False,1.4e-06
mp-862941,PmMgRh2,-0.5857218106250001,0.0,0.0,False,NM,1.1e-06,225,full,False,1.1e-06
mp-1186609,PmMgTl2,-0.234433647291672,0.0,0.0,False,NM,3.399999999999998e-06,225,full,False,3.399999999999998e-06
mp-862937,PmMgZn2,-0.344056933125,0.0,0.0,False,NM,1.5e-06,225,full,False,1.5e-06
mp-1186611,PmNdGa2,-0.62711548875,0.014411840312497,0.0,False,NM,4.599999999999997e-06,225,full,False,4.599999999999997e-06
mp-1186602,PmNdHg2,-0.5607897500000051,0.0,0.0,True,FM,0.878689699999999,225,full,True,0.878689699999999
mp-1186646,PmNdIn2,-0.627247433749996,0.0,0.0,False,NM,1.02e-05,225,full,False,1.02e-05
mp-1186617,PmNdIr2,-0.677721496250001,0.0,0.0,True,FiM,0.3399261,225,full,True,0.3399261
mp-1186610,PmNdMg2,-0.085725138749999,0.006205555,0.0,False,NM,2.76e-05,225,full,False,2.76e-05
mp-1186615,PmNdRu2,-0.101992264374999,0.022830106874998,0.0,False,NM,0.0006441,225,full,False,0.0006441
mp-1247753,PmNdTl2,-0.387353375416668,0.0,0.0,False,NM,4e-07,225,full,False,4e-07
mp-1186618,PmNdZn2,-0.320512718749998,0.0,0.0,False,NM,0.0003402,225,full,False,0.0003402
mp-862952,PmNi2Sn,-0.394397195624999,0.0,0.0,False,NM,0.0002636,225,full,False,0.0002636
mp-862951,PmPbAu2,-0.6766938668749981,0.0,0.0,False,NM,2.1e-06,225,full,False,2.1e-06
mp-862950,PmPd2Pb,-0.7041851493750001,0.0,0.0,False,NM,6e-07,225,full,False,6e-07
mp-1186627,PmPrHg2,-0.555264278541663,0.0,0.0,True,FM,0.887926999999999,225,full,True,0.887926999999999
mp-1186698,PmPrIn2,-0.621125292291665,0.0,0.0,False,NM,1.3700000000000004e-05,225,full,False,1.3700000000000004e-05
mp-1186628,PmPrIr2,-0.640356214791665,0.0,0.0,True,FiM,0.3228973,225,full,True,0.3228973
mp-1186626,PmPrMg2,-0.084254717291665,0.00603235,0.0,False,NM,3e-07,225,full,False,3e-07
mp-1186631,PmPrTl2,-0.50230098979167,0.0,0.0,False,NM,0.0002363,225,full,False,0.0002363
mp-1186630,PmPrZn2,-0.312410089791665,0.0,0.0,False,NM,7.55e-05,225,full,False,7.55e-05
mp-1186639,PmPuAu2,-0.7441616190625021,0.0,0.0,True,FM,5.634765,225,full,True,5.634765
mp-862958,PmRh2Pb,-0.5329534393749921,0.024465429999999,0.0,True,FM,0.8630865,225,full,True,0.8630865
mp-862953,PmSbAu2,-0.682360229375,0.0,0.0,False,NM,3.9e-06,225,full,False,3.9e-06
mp-862957,PmSbPd2,-0.867727009374998,0.0,0.0,False,NM,0.0,225,full,False,0.0
mp-862955,PmSbRh2,-0.670716754375,0.0,0.0,False,NM,0.002033499999999,225,full,False,0.002033499999999
mp-1186641,PmSmAl2,-0.414981894374999,0.031216145312498,0.0,False,NM,1.699999999999999e-06,225,full,False,1.699999999999999e-06
mp-1186643,PmSmGa2,-0.636402394375,0.0,0.0,False,NM,1.8e-06,225,full,False,1.8e-06
mp-983063,PmSmHg2,-0.562610520625007,0.0,0.0,True,FM,0.377658,225,full,True,0.377658
mp-1186692,PmSmIn2,-0.6259891643749991,0.0,0.0,False,NM,5e-07,225,full,False,5e-07
mp-1186644,PmSmIr2,-0.7222752668750011,0.0,0.0,False,NM,0.0053269,225,full,False,0.0053269
mp-862964,PmSmMg2,-0.089596940625,0.0,0.0,False,NM,2.24e-05,225,full,False,2.24e-05
mp-1186652,PmSmRh2,-0.7034249906249991,0.0,0.0,False,NM,9.380000000000004e-05,225,full,False,9.380000000000004e-05
mp-1186645,PmSmRu2,-0.153870035000004,0.023387061874998,0.0,False,NM,0.000544,225,full,False,0.000544
mp-1186651,PmSmTl2,-0.381530909791669,0.0,0.0,False,NM,0.0001415,225,full,False,0.0001415
mp-1186648,PmSmZn2,-0.326070273125,0.0,0.0,False,NM,3.5000000000000004e-05,225,full,False,3.5000000000000004e-05
mp-862956,PmSnAu2,-0.7305114218750001,0.0,0.0,False,NM,2.499999999999999e-06,225,full,False,2.499999999999999e-06
mp-862963,PmSnPd2,-0.8273596768749981,0.0,0.0,False,NM,1.46e-05,225,full,False,1.46e-05
mp-1186649,PmSnPt2,-0.869075646875003,0.0,0.0,False,NM,1.46e-05,225,full,False,1.46e-05
mp-862961,PmSnRh2,-0.6780882956250001,0.0,0.0,True,FM,0.7671893,225,full,True,0.7671893
mp-862966,PmTlAg2,-0.291267431874999,0.0,0.0,False,NM,0.0,225,full,False,0.0
mp-862965,PmTlAu2,-0.640160144374995,0.0,0.0,False,NM,8.9e-06,225,full,False,8.9e-06
mp-862967,PmTlRh2,-0.515224799374998,0.04219407,0.0,False,NM,4.599999999999997e-06,225,full,False,4.599999999999997e-06
mp-862968,PmTlTe2,-1.044794818541668,0.0,0.0662,False,NM,0.0,225,full,False,0.0
mp-1186663,PmTmAl2,-0.416717619374999,0.026600849583331,0.0,False,NM,1.26e-05,225,full,False,1.26e-05
mp-1186665,PmTmCu2,-0.219429186875,0.001158595625,0.0,False,NM,1.85e-05,225,full,False,1.85e-05
mp-1186654,PmTmMg2,-0.067126351875002,0.003456251249997,0.0,False,NM,1e-07,225,full,False,1e-07
mp-1186655,PmTmRu2,-0.259596631875,0.023908705625001,0.0,False,NM,3e-07,225,full,False,3e-07
mp-1186659,PmTmTl2,-0.442435934374998,0.0,0.0,False,NM,0.0001098,225,full,False,0.0001098
mp-1186657,PmTmZn2,-0.360951374374998,0.0,0.0,False,NM,0.1220777,225,full,False,0.1220777
mp-982869,PmYAl2,-0.425114749375001,0.023962996249998,0.0,False,NM,2e-07,225,full,False,2e-07
mp-1186667,PmYCu2,-0.190438376875,0.005268060416664,0.0,False,NM,1.69e-05,225,full,False,1.69e-05
mp-1186707,PmYIn2,-0.6171018718750001,0.0,0.0,False,NM,5.02e-05,225,full,False,5.02e-05
mp-1186681,PmYIr2,-0.6898656068750011,0.0,0.0,True,FiM,0.3481651,225,full,True,0.3481651
mp-862969,PmYMg2,-0.083812606875,0.0,0.0,False,NM,1.0100000000000002e-05,225,full,False,1.0100000000000002e-05
mp-1186677,PmYRh2,-0.7469928868749981,0.0,0.0,False,NM,0.0002473,225,full,False,0.0002473
mp-1186675,PmYTl2,-0.483451514374998,0.0,0.0,False,NM,5.77e-05,225,full,False,5.77e-05
mp-1186672,PmYZn2,-0.363672984375,0.0,0.0,True,FM,0.619084299999999,225,full,True,0.619084299999999
mp-862973,PmZn2Ag,-0.295873313125003,0.009873838500002,0.0,False,NM,1e-07,225,full,False,1e-07
mp-862976,PmZn2Au,-0.484408536875001,0.044567955454553,0.0,False,NM,2.499999999999999e-06,225,full,False,2.499999999999999e-06
mp-862975,PmZn2Cd,-0.350385824374999,0.0,0.0,False,NM,3.799999999999998e-06,225,full,False,3.799999999999998e-06
mp-1186674,PmZn2Hg,-0.336408327083336,0.033074763333335,0.0,False,NM,0.002242,225,full,False,0.002242
mp-1186673,PmZnAg2,-0.22587639544643,0.0318305875,0.0,False,NM,0.082585999999999,225,full,False,0.082585999999999
mp-862974,PmZnAu2,-0.6304956056249931,0.02210127,0.0,False,NM,1.04e-05,225,full,False,1.04e-05
mp-1186680,PmZnCu2,-0.157511679375,0.033245898333333,0.0,False,NM,0.0104922,225,full,False,0.0104922
mp-1186678,PmZnHg2,-0.377147839374998,0.024633410833331,0.0,False,NM,3e-07,225,full,False,3e-07
mp-1186679,PmZnRh2,-0.5221306493749991,0.0,0.0,False,NM,0.000286199999999,225,full,False,0.000286199999999
mp-975788,Pr2AgHg,-0.354060134375,0.0,0.0,True,FM,0.4128069,225,full,True,0.4128069
mp-861497,Pr2AgIr,-0.411659393749999,0.05303814928442,0.0,False,NM,0.0009855,225,full,False,0.0009855
mp-861481,Pr2AgRu,-0.165707053749999,0.032508926249999,0.0,False,NM,0.0005139,225,full,False,0.0005139
mp-982010,Pr2CdAg,-0.254516923749997,0.007137937500001,0.0,True,FM,0.5770164,225,full,True,0.5770164
mp-1186682,Pr2CdHg,-0.448425645208331,0.006442675000002,0.0,True,FM,0.943126999999999,225,full,True,0.943126999999999
mp-978095,Pr2CdPb,-0.580303501708321,0.024514244687502,0.0,False,NM,0.001477099999999,225,full,False,0.001477099999999
mp-982009,Pr2CdSn,-0.518202112083333,0.033678196937497,0.0,False,NM,0.000117799999999,225,full,False,0.000117799999999
mp-861499,Pr2CuIr,-0.434110008819445,0.061990099374995,0.0,False,NM,0.0005652,225,full,False,0.0005652
mp-861588,Pr2CuRu,-0.137500022537874,0.041332906249998,0.0,False,NM,0.0026029,225,full,False,0.0026029
mp-1186684,Pr2GaAg,-0.387378685624997,0.014460342500001,0.0,True,FM,0.3666973,225,full,True,0.3666973
mp-861498,Pr2HgPb,-0.629327582708334,0.046344563281245,0.0,False,NM,0.0014971,225,full,False,0.0014971
mp-978100,Pr2InAg,-0.353992265416664,0.001777807500001,0.0,True,FM,0.4338762,225,full,True,0.4338762
mp-978089,Pr2IrAu,-0.6379835933333321,0.064776931071429,0.0,False,NM,0.0012163,225,full,False,0.0012163
mp-861483,Pr2IrPd,-0.6643380683333321,0.036950731696427,0.0,False,NM,0.021498899999999,225,full,False,0.021498899999999
mp-1186687,Pr2IrRh,-0.5641012158333321,0.064951587946427,0.0,False,NM,1.3900000000000002e-05,225,full,False,1.3900000000000002e-05
mp-1186689,Pr2MgAl,-0.230185902083333,0.004658978749999,0.0,False,NM,9.3e-06,225,full,False,9.3e-06
mp-1186693,Pr2MgCd,-0.179608889583331,0.011397860000002,0.0,False,NM,0.000792699999999,225,full,False,0.000792699999999
mp-1186729,Pr2MgIn,-0.309022076250001,0.0,0.0,False,NM,0.0006359,225,full,False,0.0006359
mp-861505,Pr2MgTl,-0.24411787041667,0.009797930416667,0.0,False,NM,0.0008099,225,full,False,0.0008099
mp-975656,Pr2NiIr,-0.395205740833333,0.082620491874998,0.0,False,NM,0.0029372,225,full,False,0.0029372
mp-861510,Pr2SnHg,-0.5995394877083331,0.0109169409375,0.0,False,NM,4.9100000000000014e-05,225,full,False,4.9100000000000014e-05
mp-978085,Pr2TlAg,-0.307970379583333,0.0,0.0,True,FM,0.4796333,225,full,True,0.4796333
mp-861594,Pr2TlCd,-0.452316440833328,0.0,0.0,True,FM,0.9668156,225,full,True,0.9668156
mp-1186695,Pr2TlHg,-0.537052227708329,0.0,0.0,True,FM,0.9789739,225,full,True,0.9789739
mp-1186697,Pr2TlIn,-0.5543764683333301,0.006829200000005,0.0,False,NM,3.2e-06,225,full,False,3.2e-06
mp-978083,Pr2ZnAg,-0.260080206249999,0.005324622499999,0.0,True,FM,0.568755799999999,225,full,True,0.568755799999999
mp-1186694,Pr2ZnGa,-0.427062405208333,0.00838601,0.0,False,NM,1.02e-05,225,full,False,1.02e-05
mp-975650,Pr2ZnHg,-0.363108906458335,0.018418674999999,0.0,True,FM,0.6716565,225,full,True,0.6716565
mp-1186712,Pr2ZnIn,-0.278232674999999,0.109560730000001,0.0,False,NM,0.020127,225,full,False,0.020127
mp-861508,Pr2ZnIr,-0.437484120833333,0.060553802767857,0.0,False,NM,0.0001994,225,full,False,0.0001994
mp-861506,Pr2ZnRu,-0.185227715833333,0.046744681874999,0.0,False,NM,5.4600000000000006e-05,225,full,False,5.4600000000000006e-05
mp-1186739,PrAgAu2,-0.5549010508333351,0.012467470833323,0.0,False,NM,2e-07,225,full,False,2e-07
mp-861988,PrAgHg2,-0.354523539583339,0.0,0.0,False,NM,4e-07,225,full,False,4e-07
mp-862761,PrBiAu2,-0.609635062916666,0.047284541768024,0.0,False,NM,0.000163199999999,225,full,False,0.000163199999999
mp-1206720,PrBiPd,-0.935451583888889,0.0,0.0,False,NM,0.0,216,half,False,0.0
mp-976884,PrBiPd2,-0.6926631279166661,0.081312003749999,0.0,False,NM,0.0005664,225,full,False,0.0005664
mp-862760,PrCdAg2,-0.259733593749997,0.0,0.0,False,NM,1.1100000000000002e-05,225,full,False,1.1100000000000002e-05
mp-867176,PrCdAu2,-0.627538850416668,0.0,0.0,False,NM,4.95e-05,225,full,False,4.95e-05
mp-867177,PrCdHg2,-0.479013726666664,0.0,0.0,False,NM,1.2e-06,225,full,False,1.2e-06
mp-1186570,PrDyIn2,-0.597281921666667,0.010720700000003,0.0,False,NM,8.7e-06,225,full,False,8.7e-06
mp-862757,PrDyMg2,-0.075159143333331,0.0,0.0,False,NM,4.59e-05,225,full,False,4.59e-05
mp-976142,PrDyTl2,-0.468701494166666,0.008574101000029,0.0,False,NM,6.410000000000001e-05,225,full,False,6.410000000000001e-05
mp-976143,PrDyZn2,-0.311785825833332,0.008168232499999,0.0,False,NM,0.0013964,225,full,False,0.0013964
mp-976159,PrErIn2,-0.575244141249999,0.014126853750003,0.0,False,NM,0.0006971,225,full,False,0.0006971
mp-976151,PrErMg2,-0.072275510416665,0.000244582499999,0.0,False,NM,4.47e-05,225,full,False,4.47e-05
mp-976182,PrErTl2,-0.341629502083333,0.001015245000004,0.0,False,NM,4e-07,225,full,False,4e-07
mp-976129,PrErZn2,-0.313637030416666,0.012999425,0.0,False,NM,0.0065095,225,full,False,0.0065095
mp-1186519,PrEuAg2,-0.264673449999999,0.001910860625001,0.0,True,FM,7.3258992,225,full,True,7.3258992