material_id,formula,formation_energy,ehull,band_gap,is_magnetic,magnetic_ordering,total_magnetization,spacegroup
mp-1110563,Cs2NaDyCl6,-2.497153603235632,0.0,4.9885,False,NM,2.9900000000000005e-05,225
mp-580589,Cs2NaErCl6,-2.500041670068965,0.0,5.3424,False,NM,0.0,225
mp-13816,Cs2NaErF6,-3.603906971068965,0.0,6.8647,False,NM,0.003168599999999,225
mp-1112989,Cs2NaEuCl6,-2.306261582568966,0.0,0.0,True,FM,6.0395366,225
mp-556320,Cs2NaFeF6,-2.924758937068966,0.0029169084999990003,4.0522,True,FM,5.0,225
mp-1110642,Cs2NaGaBr6,-1.668242770818965,0.076300240749998,1.6072000000000002,False,NM,0.0005783,225
mp-1112988,Cs2NaGaCl6,-1.9794202778189651,0.054894559749999,2.834699999999999,False,NM,7.22e-05,225
mp-1112570,Cs2NaGaF6,-3.047691316818965,0.008561962499999,5.8467,False,NM,0.0003273,225
mp-989594,Cs2NaGaH6,-0.21012295156896602,0.072506721250001,1.0896,False,NM,3.5e-06,225
mp-1112657,Cs2NaGdCl6,-2.491442455068965,0.0,3.0186,True,FM,7.0000534,225
mp-542951,Cs2NaHoCl6,-2.497521565568965,0.0,5.2906,False,NM,0.0,225
mp-996943,Cs2NaInBr6,-1.716573456735632,0.0,1.8935,False,NM,2.7e-06,225
mp-989571,Cs2NaInCl6,-2.013801218735632,0.0,2.9903999999999993,False,NM,0.000100599999999,225
mp-13898,Cs2NaInF6,-2.996682126735633,0.0,5.304,False,NM,0.0,225
mp-989610,Cs2NaInH6,-0.18844397348563102,0.0,1.255799999999999,False,NM,0.0,225
mp-1112149,Cs2NaInI6,-1.285723832735632,0.045271320749997006,0.6998000000000001,False,NM,0.0007985,225
mp-1112014,Cs2NaIrF6,-2.536311646068965,0.009965748500000001,2.2607,False,NM,0.0005484,225
mp-1079096,Cs2NaLaBr6,-2.190014560568966,0.006555198000003,3.8470999999999993,False,NM,0.0,225
mp-1080017,Cs2NaLaCl6,-2.399424666499999,0.00385671,4.6183,False,NM,0.0,225
mp-989559,Cs2NaLiF6,-2.4279958164022992,0.0,0.0,True,FM,1.9990777999999991,225
mp-1111824,Cs2NaLuCl6,-2.499181396735632,0.0,5.494,False,NM,0.0,225
mp-989568,Cs2NaMgF6,-2.959081592568965,0.0,0.0,False,NM,1.0012813,225
mp-554302,Cs2NaMnF6,-2.9204807228620693,0.046311406000014,0.0,True,FM,3.9999496,225
mp-1111822,Cs2NaMoBr6,-1.586868888068966,0.029777837999998003,1.4443000000000001,True,FM,2.9981609,225
mp-1111434,Cs2NaMoCl6,-1.778304948000018,0.006399425750007,1.6371,True,FM,2.9998754,225
mp-1110968,Cs2NaMoF6,-2.971331244068967,0.0,4.3824,True,FM,3.0,225
mp-1112148,Cs2NaMoI6,-1.153034087068966,0.071357662708334,1.0847,True,FM,2.998789,225
mp-989527,Cs2NaNF6,-1.797923644568965,0.070405413499999,2.797399999999999,False,NM,0.0004898,225
mp-1112145,Cs2NaNdBr6,-2.152428136818965,0.0,4.1254,False,NM,0.0007224,225
mp-1111821,Cs2NaNdCl6,-2.475811504818966,0.0,4.9943,False,NM,0.0003209,225
mp-1110981,Cs2NaNdF6,-3.525873904818964,0.0,6.7399000000000004,False,NM,0.0,225
mp-1111951,Cs2NaNiF6,-2.5738645860689653,0.028489873999999003,0.0,True,FM,0.9998454,225
mp-989556,Cs2NaPbF6,-2.769691429068965,0.0,0.0,True,FM,0.952273199999999,225
mp-1112146,Cs2NaPrBr6,-2.148250080235632,0.0,4.125199999999999,False,NM,0.0007279,225
mp-1111820,Cs2NaPrCl6,-2.469188892235632,0.0,4.9676,False,NM,0.000332899999999,225
mp-1110980,Cs2NaPrF6,-3.511409330235632,0.0,6.6211,False,NM,0.001526899999999,225
mp-1112144,Cs2NaPrI6,-1.681292552235632,0.0,3.1147,False,NM,0.0015798,225
mp-1111979,Cs2NaRhF6,-2.620182286068965,0.0,1.9082000000000001,False,NM,0.0007660999999990001,225
mp-1112013,Cs2NaRuF6,-2.609729962068965,0.0,0.0,True,FM,1.0008961,225
mp-1112142,Cs2NaSbBr6,-1.638596316068965,0.013583240500001,2.556,False,NM,0.0002911,225
mp-989514,Cs2NaSbCl6,-1.913533248068965,0.0020347419999990003,2.8096,False,NM,0.0004748,225
mp-1110979,Cs2NaSbF6,-2.885768190068965,0.032347780999998,4.2317,False,NM,0.0003491,225
mp-1112140,Cs2NaSbI6,-1.237659143068965,0.029831639000000004,1.8895,False,NM,0.0005174,225
mp-1112534,Cs2NaScBr6,-2.090647527568966,0.0,3.1061,False,NM,0.0001115,225
mp-1111433,Cs2NaScCl6,-2.430181970568966,0.0,3.8894,False,NM,0.0001852,225
mp-6204,Cs2NaScF6,-3.560766908568966,0.0,6.8065999999999995,False,NM,0.0,225
mp-1112141,Cs2NaScI6,-1.608572185568968,0.0,2.2294,False,NM,0.0,225
mp-580541,Cs2NaSmCl6,-2.4845680815689652,0.0,5.1745,False,NM,0.0,225
mp-1205868,Cs2NaSmF6,-3.549816545568966,0.0,6.924799999999999,False,NM,0.0006092,225
mp-989574,Cs2NaSrF6,-3.013346729068966,0.0242882425,0.0,False,NM,1.0011514,225
mp-1111728,Cs2NaTaBr6,-1.617391389802299,0.097087383725,0.0,True,FM,1.9986857,225
mp-1111428,Cs2NaTaCl6,-1.946303391802299,0.09627751791666801,0.0,True,FM,1.9994144,225
mp-1112399,Cs2NaTaI6,-1.167946801802299,0.1162641680625,0.0,True,FM,1.9982514,225
mp-568670,Cs2NaTbCl6,-2.496447220735632,0.0,5.2046,False,NM,0.0,225
mp-1206873,Cs2NaTbF6,-3.58348305773563,0.0,6.8618000000000015,False,NM,0.0,225
mp-1112138,Cs2NaTlBr6,-1.571439963402299,0.01961205425,1.0093,False,NM,0.0003046,225
mp-1112527,Cs2NaTlCl6,-1.8345188524023,0.0,1.9178000000000002,False,NM,0.0002119,225
mp-13800,Cs2NaTlF6,-2.718130387402299,0.0,3.6228,False,NM,0.000279399999999,225
mp-1112139,Cs2NaTlI6,-1.1778754554023,0.076598949749999,0.08170000000000001,False,NM,0.001077799999999,225
mp-1112567,Cs2NaTmCl6,-2.500336801068966,0.0,5.4487,False,NM,1.2900000000000002e-05,225
mp-23108,Cs2NaUCl6,-2.241433994068965,0.0,0.5004000000000001,True,FM,2.9999956,225
mp-571467,Cs2NaYBr6,-2.157973410068965,0.0,4.2176,False,NM,0.0007139,225
mp-23120,Cs2NaYCl6,-2.491634642068965,0.0,5.0774,False,NM,0.00023,225
mp-13925,Cs2NaYF6,-3.573435046068965,0.0,6.863900000000001,False,NM,0.0,225
mp-1112137,Cs2NaYI6,-1.6785762190689661,0.0,3.1517,False,NM,0.0018564,225
mp-567172,Cs2NaYbCl6,-2.400583374999999,0.0,0.0,False,NM,0.0,225
mp-1112950,Cs2NbAgF6,-2.589333719666663,0.282991779333332,0.0,True,FM,1.9966690999999992,225
mp-1112641,Cs2NbAuF6,-2.604898890000007,0.26742660899998605,0.13770000000000002,False,NM,0.063313,225
mp-1113104,Cs2NbCuF6,-2.525266929000003,0.347058569999994,0.0,True,FM,1.9995672,225
mp-1111976,Cs2NbTlF6,-2.742581756333334,0.129743742666665,0.0,True,FM,1.9983475,225
mp-1112944,Cs2NdAgBr6,-1.897230833847701,0.0,3.3798,False,NM,0.0008343,225
mp-1112945,Cs2NdAgCl6,-2.193925534847708,0.0,3.8207,False,NM,0.0,225
mp-1113229,Cs2NdAgF6,-3.137904715750005,0.019960972999998,3.308599999999999,False,NM,5e-07,225
mp-1113269,Cs2NdAgI6,-1.4629922338477,0.005714765250002,2.5429,False,NM,0.0001214,225
mp-1113409,Cs2NdAuCl6,-2.056644206681034,0.101673728000002,2.2148,False,NM,0.0004548,225
mp-1111885,Cs2NdCuBr6,-1.840502089681035,0.025492302749998003,2.2431,False,NM,0.0004364,225
mp-1112884,Cs2NdCuI6,-1.399856529681034,0.049070202250002005,1.7889,False,NM,0.0016821,225
mp-689925,Cs2NiF6,-2.466306513333333,0.0,2.4357,False,NM,0.0,225
mp-647426,Cs2NpBr6,-1.967561964228931,0.0,0.091099999999999,True,FM,3.0,225
mp-1213702,Cs2O2,-0.9231508473275861,0.30107250499999905,0.0,True,FM,0.9999629,225
mp-2647124,Cs2PbBr6,-1.477051876590038,0.043763359722224004,0.5108,False,NM,0.0,225
mp-23425,Cs2PbCl6,-1.742068167701147,0.0,1.4541,False,NM,0.0,225
mp-989549,Cs2PbClF6,-2.267163648931034,0.0,0.098999999999999,True,FM,0.9998342,225
mp-1205847,Cs2PdBr6,-1.366955884367815,0.0,0.756,False,NM,0.0,225
mp-1206568,Cs2PdCl6,-1.368716757222222,0.0,1.3617,False,NM,0.0,225
mp-504729,Cs2PdF6,-2.32513731888889,0.0,2.306499999999999,False,NM,0.0,225
mp-569066,Cs2PdI6,-1.040615926590038,0.0062043919444440005,0.044899999999999,False,NM,2e-07,225
mp-1113236,Cs2PrAgCl6,-2.187607407264367,0.0072774982500040004,3.825999999999999,False,NM,0.000449299999999,225
mp-1113230,Cs2PrAgF6,-3.144332087264368,0.0047045460000010005,3.2577,False,NM,2.7300000000000003e-05,225
mp-1112942,Cs2PrAgI6,-1.461820751264368,0.006615451750001,2.5343,False,NM,0.0019406,225
mp-1113408,Cs2PrAuCl6,-2.050515237097701,0.11645928264583301,1.874499999999999,False,NM,0.00047109999999900005,225
mp-1113355,Cs2PrCuBr6,-1.8372968130977,0.026963824749998002,2.1974,False,NM,0.0005401,225
mp-1111470,Cs2PrCuCl6,-2.136898362097701,0.053705669645831004,2.3465,False,NM,0.000306,225
mp-1112883,Cs2PrCuI6,-1.3993131760977011,0.049342759749998,1.776399999999999,False,NM,0.0011294,225
mp-30062,Cs2PtBr6,-1.409635323256703,0.0,1.4417,False,NM,0.0,225
mp-23406,Cs2PtCl6,-1.432955294999999,0.0,2.1146,False,NM,0.0,225
mp-9262,Cs2PtF6,-2.35794224,0.0008704544444400001,2.814,False,NM,0.0,225
mp-23060,Cs2PtI6,-1.070568932145593,0.0,0.655099999999999,False,NM,0.0,225
mp-1112531,Cs2RbAlBr6,-1.837406719681034,0.066583641999999,3.2239,False,NM,0.0003386,225
mp-1112525,Cs2RbAlCl6,-2.184768013681034,0.04391410775000101,4.6551,False,NM,8.79e-05,225
mp-1113048,Cs2RbAlF6,-3.231497278681034,0.153942489666671,8.3194,False,NM,1.69e-05,225
mp-1112133,Cs2RbAlI6,-1.361633925681034,0.051280263750001005,1.8835000000000002,False,NM,0.0013321,225
mp-1112134,Cs2RbAsBr6,-1.5705858744310341,0.0,2.8942,False,NM,0.0016499,225
mp-1112007,Cs2RbAsCl6,-1.833220260431034,0.033354454000000006,3.4685,False,NM,0.0011495,225
mp-1111968,Cs2RbAsF6,-2.779772439431034,0.0,4.5626999999999995,False,NM,0.0006767,225
mp-1112131,Cs2RbAsI6,-1.188786892431035,0.033498876500000004,2.286,False,NM,0.002156,225
mp-1112524,Cs2RbAuBr6,-1.374250371681034,0.12357686212499701,0.020799999999999003,True,FM,1.9963876999999992,225
mp-1112523,Cs2RbAuCl6,-1.593291858681035,0.12125701699999901,0.19110000000000002,True,FM,1.9976968,225
mp-1111977,Cs2RbAuF6,-2.327837465681035,0.048165902999997005,0.7939,True,FM,1.9993469,225
mp-1112132,Cs2RbBiBr6,-1.706946280681034,0.027001028625000003,3.4129,False,NM,0.005363199999999,225
mp-1112129,Cs2RbBiCl6,-1.975469918681034,0.017918732333331,4.131600000000001,False,NM,0.003580599999999,225
mp-559695,Cs2RbBiF6,-2.9101303966810352,0.0,4.7749,False,NM,5e-07,225
mp-1112161,Cs2RbBiI6,-1.309371944681035,0.050990795000002004,2.7905,False,NM,0.0011264,225
mp-1112520,Cs2RbCeCl6,-2.462440544681034,0.041292807916664,4.1198,True,FM,1.0002044,225
mp-1206535,Cs2RbCuF6,-2.554806225681035,0.0,0.8744000000000001,True,FM,2.2216665,225
mp-1112130,Cs2RbDyCl6,-2.500930817847701,0.006460726916669,5.059200000000001,False,NM,0.000483,225
mp-1112127,Cs2RbErCl6,-2.504624538681034,0.016546797833332003,5.067,False,NM,0.0004677,225
mp-1112519,Cs2RbEuCl6,-2.303289740181035,0.019327747750001,0.0,True,FM,6.0165502,225
mp-1112167,Cs2RbFeF6,-2.925841278681035,0.0,4.1178,True,FM,5.0000001,225
mp-1112518,Cs2RbGaBr6,-1.694576735431034,0.08866914474999801,2.1399,False,NM,0.001072099999999,225
mp-1112517,Cs2RbGaCl6,-2.000220792431034,0.06306478074999701,3.4534000000000002,False,NM,0.0003053,225
mp-989618,Cs2RbGaF6,-3.055141840431035,0.0,5.9411000000000005,False,NM,0.0005873,225
mp-1112155,Cs2RbGaI6,-1.260102767431034,0.084377234749999,0.9753000000000001,False,NM,0.0020645,225
mp-1112516,Cs2RbGdCl6,-2.4941379476810353,0.008259870749999001,3.235699999999999,True,FM,7.0000493,225
mp-996941,Cs2RbInBr6,-1.7372945553477002,0.014949250499999001,2.496299999999999,False,NM,1e-06,225
mp-1112125,Cs2RbInCl6,-2.026760652347701,0.003407339499999,3.6668000000000003,False,NM,6.950000000000002e-05,225
mp-989605,Cs2RbInF6,-2.987577245347701,0.0,5.3728,False,NM,0.000864,225
mp-1112521,Cs2RbInI6,-1.314679099347701,0.06547766175,1.3972,False,NM,0.0023371,225
mp-1111965,Cs2RbIrF6,-2.533594465681035,0.0018074614999990001,2.5113,False,NM,0.0003875,225
mp-1112126,Cs2RbLaCl6,-2.510476549181034,0.032817324249998,4.4364,False,NM,0.0013070999999990002,225
mp-1112515,Cs2RbLuCl6,-2.505049063347701,0.0,5.0606,False,NM,0.0003424,225
mp-989519,Cs2RbNF6,-1.8170510231810342,0.092343974249999,2.9581,False,NM,0.0011022,225
mp-1111966,Cs2RbNbF6,-2.990093562681034,0.057691538249998,0.0,True,FM,2.0017337,225
mp-1112123,Cs2RbNdCl6,-2.477359040431034,0.027712252833334002,4.8574,False,NM,0.0,225
mp-989525,Cs2RbPbF6,-2.752321537681034,0.0,0.0,True,FM,0.9986212,225
mp-1205550,Cs2RbPdF6,-2.474999849681034,0.025785284749997,0.0,True,FM,0.9994814,225
mp-1112124,Cs2RbPrCl6,-2.4704653678476998,0.030319584499996003,4.8296,False,NM,0.001222,225
mp-1112166,Cs2RbRuF6,-2.605896715681034,0.0,0.0,True,FM,1.0028722,225
mp-1112121,Cs2RbSbBr6,-1.6528725636810342,0.038009861500006,2.8409999999999993,False,NM,0.005101599999999,225
mp-1112122,Cs2RbSbCl6,-1.919281520681034,0.025257205,3.4707,False,NM,0.003347499999999,225
mp-1112513,Cs2RbSbF6,-2.872137725681034,0.035102777999998,4.0614,False,NM,0.001444599999999,225
mp-1112512,Cs2RbSbI6,-1.2610733296810341,0.055579060000001006,2.3768000000000002,False,NM,0.007899399999999,225
mp-1112119,Cs2RbScBr6,-2.106820938181035,0.022333009,3.2725,False,NM,9e-07,225
mp-1112120,Cs2RbScCl6,-2.438831018181035,0.0059199310000100005,4.0707,False,NM,0.0,225
mp-1111963,Cs2RbScF6,-3.554173583181034,0.0,6.6555,False,NM,1.9e-05,225
mp-1112117,Cs2RbScI6,-1.633877158181035,0.0,2.3929,False,NM,0.0011524,225
mp-1112118,Cs2RbSmCl6,-2.486713688181034,0.0,4.8937,False,NM,0.0011187,225
mp-1112511,Cs2RbTaF6,-2.926966403414368,0.172820013406666,0.0,True,FM,1.9689644,225
mp-1112115,Cs2RbTbCl6,-2.499792286347701,0.0,4.923299999999999,False,NM,0.0005660999999990001,225
mp-1112116,Cs2RbTlBr6,-1.589017462014368,0.040737424249999,1.5132999999999992,False,NM,0.0009532,225
mp-1112004,Cs2RbTlCl6,-1.844958549014368,0.017584059499998,2.468899999999999,False,NM,0.0008642,225
mp-989567,Cs2RbTlF6,-2.702997824014368,0.0,3.7422,False,NM,0.0005694,225
mp-1112510,Cs2RbTlI6,-1.202185388014368,0.10145062475000001,0.6116,False,NM,0.0040062,225
mp-1111479,Cs2RbTmCl6,-2.505352563681035,0.004544884250003,5.0734,False,NM,0.000341,225
mp-1112113,Cs2RbYBr6,-2.170296516681034,0.011735092499999001,4.1715,False,NM,0.0016652,225
mp-1112114,Cs2RbYCl6,-2.495544132681034,0.007038884750003,4.9337,False,NM,0.0014617,225
mp-7886,Cs2RbYF6,-3.557187892681034,0.0,6.1978,False,NM,0.0003742,225
mp-1112507,Cs2RbYI6,-1.700814875681035,0.014399954000000001,3.3296,False,NM,0.0019179,225
mp-567942,Cs2ReCl6,-1.558619941944445,0.0,1.2397,True,FM,3.0,225
mp-1112594,Cs2RhAuF6,-2.037752590000005,0.16032188899999802,0.6011000000000001,False,NM,0.0008221,225
mp-1113110,Cs2RuAuF6,-1.995628077800003,0.194496920599998,0.0,True,FM,1.0826734,225
mp-989517,Cs2SBrCl6,-1.199998675181034,0.06444264940624901,0.0,False,NM,0.11780209999999901,225
mp-989521,Cs2SCl6F,-0.695064462612845,0.45955905021354204,0.0,True,FM,0.856984299999999,225
mp-1113393,Cs2SbAuBr6,-1.314688800931034,0.070010802250001,0.2823,False,NM,0.0002878,225
mp-1112926,Cs2SbAuCl6,-1.5356811929310341,0.08717430999999701,0.40389999999999904,False,NM,0.0005736,225
mp-1113146,Cs2SbAuF6,-2.361835531931034,0.256915555500001,0.8002,False,NM,0.0014862,225
mp-1112922,Cs2SbAuI6,-0.983709885931034,0.057335186499999004,0.0,False,NM,0.000271,225
mp-28269,Cs2SbBr6,-1.5274097465900391,0.0,0.0,False,NM,3.9e-06,225
mp-1184201,Cs2SbCl6,-1.779874634367816,0.0,0.0,True,FM,1.9285021,225
mp-1113451,Cs2ScAgBr6,-1.834310511597701,0.022731832812501,2.8546,False,NM,0.000254,225
mp-1112622,Cs2ScAgCl6,-2.147683048597701,0.0,3.3916,False,NM,4.1e-06,225
mp-1113115,Cs2ScAgF6,-3.200004091597701,0.0,3.651099999999999,False,NM,0.0008521,225
mp-1112938,Cs2ScAgI6,-1.386986988597701,0.0,2.0571,False,NM,0.001462999999999,225
mp-1112631,Cs2ScAuBr6,-1.716857844431035,0.10611328074999901,1.7173,False,NM,0.0011438,225
mp-1113213,Cs2ScAuCl6,-1.856329277499995,0.106712485999988,2.0233,False,NM,0.0006456999999990001,225
mp-1112595,Cs2ScAuF6,-2.982187894666674,0.120012695166664,1.8594,False,NM,0.0009350999999990001,225
mp-1112923,Cs2ScAuI6,-1.295620720431034,0.048978814999998004,1.0839,False,NM,0.0,225
mp-1113181,Cs2ScCuCl6,-1.945297614749999,0.05224966400000101,1.9388,False,NM,0.0037229,225
mp-1112591,Cs2ScCuF6,-3.116287667041669,0.08487617862499901,1.8308,False,NM,0.0001815,225
mp-1112630,Cs2ScHgBr6,-1.769550669681035,0.09183872043749701,0.0,False,NM,0.0051153,225
mp-1113294,Cs2ScHgCl6,-2.066120647681035,0.09911702699999801,0.0,True,FM,0.8816431,225
mp-1113142,Cs2ScHgF6,-3.124770418681035,0.0891559595,0.0,True,FM,0.9990034,225
mp-1112899,Cs2ScHgI6,-1.339299918681035,0.037274964124999005,0.0,False,NM,0.6521306,225
mp-1113520,Cs2ScInBr6,-1.897423124097701,0.012975812999999002,2.1681,False,NM,0.0007626999999990001,225
mp-1113067,Cs2ScInCl6,-2.073196200354171,0.005675699312501,2.804299999999999,False,NM,0.0007769999999990001,225
mp-1113138,Cs2ScInF6,-3.295475260916672,0.0019325532499980002,4.142200000000001,False,NM,0.0,225
mp-1113068,Cs2ScInI6,-1.443627259097701,0.0,1.9467999999999992,False,NM,3.4900000000000015e-05,225
mp-1112493,Cs2ScTlBr6,-1.937039557764369,0.016601484499998,3.1371,False,NM,1.8e-06,225
mp-1112000,Cs2ScTlCl6,-2.255239010764369,0.005701698499997,3.5792,False,NM,0.0007492999999990001,225
mp-866100,Er2CuOs,-0.31001672749999903,0.0,0.0,False,NM,3.5e-06,225
mp-1184092,Er2CuPd,-0.613074276666665,0.014831338333326002,0.0,False,NM,6.099999999999997e-06,225
mp-862940,Er2CuPt,-0.860273706666667,0.013169655833337,0.0,False,NM,1e-07,225
mp-862944,Er2CuRu,-0.38564200749999805,0.0,0.0,False,NM,2.4e-06,225
mp-1184097,Er2CuTc,-0.151292746249996,0.084457972812501,0.0,False,NM,7.52e-05,225
mp-866004,Er2InAg,-0.39379759208332904,0.0,0.0,False,NM,1.4900000000000001e-05,225
mp-1184102,Er2InHg,-0.5538206235416681,0.004654065000003,0.0,False,NM,0.002977999999999,225
mp-861984,Er2IrPd,-0.9634959549999961,0.0,0.0,False,NM,2.8e-06,225
mp-861985,Er2IrRh,-0.9427768949999971,0.0,0.0,False,NM,3.13e-05,225
mp-867214,Er2IrRu,-0.6863176874999981,0.0,0.0,False,NM,3.799999999999998e-06,225
mp-861946,Er2MgAl,-0.254361973749999,0.0,0.0,False,NM,3e-07,225
mp-1184086,Er2MgCd,-0.166499903749998,0.008728464999999,0.0,False,NM,0.0006631,225
mp-1184090,Er2MgGa,-0.317217078124998,0.043858688020834,0.0,False,NM,0.0026403,225
mp-863702,Er2MgIn,-0.287367275416663,0.0,0.0,False,NM,0.0023317,225
mp-1184112,Er2MgOs,-0.173458086249997,0.054174876125002006,0.0,False,NM,7.499999999999998e-06,225
mp-1184126,Er2MgTc,-0.029198859999999,0.08172129781249901,0.0,False,NM,0.0007455,225
mp-983556,Er2MgTl,-0.19838838458333302,0.017700571000001,0.0,False,NM,0.002157499999999,225
mp-862992,Er2NiIr,-0.708694914999996,0.016456293750001003,0.0,False,NM,0.00023909999999900002,225
mp-867344,Er2NiOs,-0.35606861499999704,0.047857004125002,0.0,True,FiM,0.319955899999999,225
mp-862615,Er2NiRu,-0.45097431249999603,0.0,0.0,True,FiM,0.3360545,225
mp-867213,Er2OsPd,-0.605359682499996,0.022984457250001002,0.0,False,NM,6e-06,225
mp-983555,Er2PdAu,-0.9481179916666631,0.030108422499999003,0.0,False,NM,2.0200000000000003e-05,225
mp-1184099,Er2PdPt,-1.180886901666667,0.029913145833340003,0.0,False,NM,1.65e-05,225
mp-983581,Er2PdRh,-0.9299678574999991,0.008980392499998,0.0,False,NM,2.34e-05,225
mp-866281,Er2PdRu,-0.705442597499997,0.0,0.0,False,NM,1.2400000000000002e-05,225
mp-1184081,Er2RuAu,-0.6295216224999991,0.007891515937497,0.0,False,NM,8.060000000000001e-05,225
mp-1184144,Er2RuPt,-0.8471825649999991,0.0,0.0,False,NM,0.001164699999999,225
mp-863666,Er2RuRh,-0.689887254999998,0.0,0.0,False,NM,1.3e-06,225
mp-1184130,Er2TcAg,-0.161452126666665,0.09413471281250001,0.0,False,NM,1.4700000000000002e-05,225
mp-863667,Er2TlAg,-0.33563325125000104,0.0,0.0,False,NM,0.000270799999999,225
mp-861628,Er2TlCd,-0.308721125833336,0.0,0.0,True,FM,0.543041099999999,225
mp-1184101,Er2TlHg,-0.38908272395833704,0.0034473424999980004,0.0,False,NM,0.002123899999999,225
mp-1184088,Er2TlIn,-0.36335115500000104,0.0,0.0,False,NM,8.2e-06,225
mp-1184108,Er2TlZn,-0.316837043333334,0.011835085625,0.0,False,NM,0.0011516,225
mp-1184083,Er2ZnAg,-0.33640984041666505,0.011313474999999,0.0,False,NM,1.13e-05,225
mp-983908,Er2ZnAu,-0.676950140416664,0.018334206562506002,0.0,False,NM,5.299999999999997e-06,225
mp-983583,Er2ZnCu,-0.303155337499998,0.010586814999999,0.0,False,NM,3.6e-06,225
mp-1184077,Er2ZnGa,-0.54113835041667,0.025964014531250003,0.0,False,NM,0.003123,225
mp-1184082,Er2ZnHg,-0.466456912291672,0.012107527500003,0.0,False,NM,1.3e-06,225
mp-862788,Er2ZnIn,-0.469514457916666,0.033003704583332,0.0,False,NM,0.000847,225
mp-862789,Er2ZnIr,-0.6742044650000001,0.019343443333331,0.0,False,NM,0.0,225
mp-861636,Er2ZnOs,-0.326975474999997,0.0145133148125,0.0,False,NM,1.5700000000000002e-05,225
mp-862895,Er2ZnRu,-0.402019619999996,0.0,0.0,False,NM,3e-07,225
mp-862914,Er2ZnTc,-0.214296069999999,0.07587587031250101,0.0,False,NM,0.0010628,225