material_id,formula,formation_energy,ehull,band_gap,is_magnetic,magnetic_ordering,total_magnetization,spacegroup
mp-973847,La2ZnGa,-0.49249913374999804,0.025233581875003002,0.0,False,NM,2.1e-06,225
mp-1185102,La2ZnHg,-0.44452746062500004,0.011305698125003,0.0,False,NM,0.7629385,225
mp-867124,La2ZnIr,-0.49148192500000004,0.07909276249999901,0.0,False,NM,0.0002742,225
mp-867847,La2ZnRu,-0.23210086000000002,0.058964427142856005,0.0,False,NM,0.0001561,225
mp-1079926,La2ZrNiO6,-3.144442355999999,0.21829075762499803,1.9201000000000001,True,FM,2.0027138,225
mp-1211429,La3(P3Pd10)2,-0.705824681822659,0.0,0.0,False,NM,2e-07,225
mp-1211466,La3(Si3Pd10)2,-0.813642733275859,0.0,0.0,False,NM,2e-07,225
mp-581510,La4CdCo,-0.189479653750001,0.0,0.0,False,NM,0.0001982,216
mp-1211420,La4CdIr,-0.46226128374999703,0.0,0.0,False,NM,2e-06,216
mp-1211864,La4CdNi,-0.24075245749999802,0.0,0.0,False,NM,0.3535065,216
mp-1211438,La4CdPd,-0.39502815166666705,0.0,0.0,False,NM,0.0344315,216
mp-1211384,La4CdPt,-0.542257012500002,0.0,0.0,False,NM,0.0100378,216
mp-570820,La4CdRu,-0.295602855,0.0,0.0,False,NM,0.209780399999999,216
mp-569582,La4MgCo,-0.10535970833333601,0.0,0.0,False,NM,0.0007367,216
mp-570078,La4MgIr,-0.381873982916669,0.0,0.0,False,NM,1.3e-06,216
mp-1211561,La4MgNi,-0.158968389583335,0.006260068988094,0.0,False,NM,0.8552247,216
mp-1211476,La4MgRh,-0.348373457916668,0.0,0.0,False,NM,1.2e-06,216
mp-605878,La4MgRu,-0.215255627083334,0.0,0.0,False,NM,7.110000000000002e-05,216
mp-1223103,La5S8,-2.180533982620191,0.24338594221153803,0.0,False,NM,0.9985543,216
mp-640898,La6Mg22Al,-0.057727336206896004,0.051540745948277004,0.0,False,NM,0.6436529,225
mp-1192607,La6Mg23C,-0.08646221333333201,0.002046719083332,0.0,False,NM,1.4570794,225
mp-1192616,La6Mg23P,-0.190596333321428,0.0,0.0,False,NM,0.2935082,225
mp-1192585,La6Mg23Sb,-0.16984868216666602,0.0,0.0,False,NM,0.3720505,225
mp-1211430,La6Mg23Si,-0.12654465783333402,0.0,0.0,False,NM,7.240000000000001e-05,225
mp-1184971,LaAg2Hg,-0.32384658645833403,0.030047124166667,0.0,False,NM,0.0887979,225
mp-974463,LaAg2Sn,-0.41562203833333206,0.043370482291666006,0.0,False,NM,0.001129499999999,225
mp-1185024,LaAg3,-0.17485992249999702,0.07333359,0.0,False,NM,6.3e-06,225
mp-867910,LaAgAu2,-0.5917919341666671,0.012605053333325001,0.0,False,NM,1.699999999999999e-06,225
mp-867245,LaAgHg2,-0.42825449125000103,0.004949376250003,0.0,False,NM,0.0,225
mp-1185007,LaAlAg2,-0.30083943166666605,0.07026658541666801,0.0,False,NM,0.0006143,225
mp-708,LaAs,-1.847575358749996,0.0,0.0,False,NM,0.0,225
mp-976113,LaAu3,-0.6680701387499971,0.037132121684783005,0.0,False,NM,5e-07,225
mp-631487,LaBeOs2,0.6749265475,0.8057510867769591,0.0,False,NM,0.002649,216
mp-22926,LaBi,-1.2942145200000041,0.0,0.0,False,NM,2.4e-06,225
mp-867908,LaBiAu2,-0.679363793750001,0.037691583186941005,0.0,False,NM,1.16e-05,225
mp-1206717,LaBiPd,-1.09791517666667,0.0,0.121699999999999,False,NM,0.0,216
mp-1018136,LaBiPt,-1.179911560000003,0.0,0.0,False,NM,7e-07,216
mp-1207143,LaCd2Cu,-0.18959971624999902,0.07696694000000101,0.0,False,NM,0.00016199999999900002,216
mp-862559,LaCd3,-0.29920648374999803,0.0,0.0,False,NM,2e-06,225
mp-867225,LaCdAg2,-0.27130863708333103,0.0,0.0,False,NM,1.2100000000000001e-05,225
mp-862743,LaCdAu2,-0.6595028887499991,0.0,0.0,False,NM,1.62e-05,225
mp-862262,LaCdHg2,-0.44535481250000103,0.0,0.0,False,NM,1.48e-05,225
mp-1223030,LaCeAl2O6,-3.6599455985000002,0.011456947000034001,0.27490000000000003,True,FM,0.9999916,225
mp-1222920,LaCeAl4,-0.504900805,0.018609390833333,0.0,True,FM,0.6159661,216
mp-1222899,LaCeB12,-0.599484566785713,0.007974525714287,0.0,True,FM,1.1707973,225
mp-1185183,LaCeHg2,-0.525465717500004,0.0,0.0,True,FM,1.809393399999999,225
mp-1185169,LaCeMg2,0.008856561249999001,0.08899424812500101,0.0,True,FM,1.0099832,225
mp-1222924,LaCeOs4,-0.14406255416666502,0.012938482777778001,0.0,False,NM,0.0,216
mp-1222946,LaCeRh4,-0.6910099724999961,0.008506045,0.0,True,FM,0.5351258,216
mp-1222913,LaCeRu4,-0.21032594249999,0.0,0.0,False,NM,4.299999999999999e-06,216
mp-1185219,LaCeZn2,-0.240617468749999,0.040653942500001004,0.0,True,FM,1.1105823,225
mp-631633,LaCoTc2,0.6380505156260801,0.6568297270833341,0.0,True,FM,3.1523104,225
mp-961695,LaCoTe,-0.868410610555555,0.33463261999999905,0.6309,False,NM,0.0013457,216
mp-982015,LaDyMg2,-0.065038046666665,0.015099640208335001,0.0,False,NM,0.00020209999999900002,225
mp-977143,LaDyRu2,-0.19016786166666502,0.12000021041294501,0.0,False,NM,0.0019448999999990002,225
mp-1184989,LaDyTl2,-0.37559363583333905,0.0,0.0,False,NM,1.7800000000000002e-05,225
mp-1222875,LaErAl4,-0.5300651697222201,0.028781594999999,0.0,False,NM,0.0517213,216
mp-1185035,LaErIn2,-0.592410757083332,0.008574729999999,0.0,False,NM,0.0019603,225
mp-1185048,LaErMg2,-0.06305602874999901,0.017081658125000003,0.0,False,NM,0.0003235,225
mp-1185012,LaErTl2,-0.364791912916673,0.0,0.0,False,NM,0.000254,225
mp-1517095,LaEu2NbO6,-3.2073451085,0.22146052106666203,0.6054,True,FM,13.9999998,225
mp-1516435,LaEu2SbO6,-2.879752632500002,0.28845735323333704,1.0328,True,FM,13.9999998,225
mp-1185198,LaEuAg2,-0.279266988333334,0.0,0.0,True,FM,7.2375066,225
mp-1223023,LaEuAl4,-0.49610149666666803,0.0,0.0,True,FM,7.34862,216
mp-1185174,LaEuAu2,-0.7908660375000011,0.024026496250002003,0.0,True,FM,7.1738396,225
mp-1222891,LaEuB12,-0.5949202028571431,0.0010598771428660001,0.0,True,FM,6.8252447,225
mp-1185182,LaEuCd2,-0.316990744999999,0.0,0.0,True,FM,7.1835942,225
mp-1185607,LaEuHg2,-0.60836758125,0.0,0.0,True,FM,7.2164907,225
mp-1185217,LaEuPd2,-0.7609398687500001,0.022036148749999002,0.0,True,FM,6.9500353,225
mp-1185181,LaEuPt2,-1.013020110000001,0.033653948645834,0.0,True,FM,6.9618255,225
mp-975616,LaEuZn2,-0.28766025250000304,0.0,0.0,True,FM,7.0753642,225
mp-1207087,LaF2,-3.788501152777778,0.21884863462962803,0.0,True,FM,0.9983481,225
mp-13181,LaF3,-4.326851292500001,0.18141721833333302,4.8904,False,NM,4.2e-06,225
mp-862654,LaGaAu2,-0.6353538056250001,0.049856318936335006,0.0,False,NM,0.0008152,225
mp-1223045,LaGdAl4,-0.540436121666668,0.017790187499997,0.0,True,FM,7.46065,216
mp-1185230,LaGdTl2,-0.39825600541666706,0.0,0.0,True,FM,7.4034845,225
mp-631288,LaGeOs,0.9255226500000001,1.4933749508333332,0.0,False,NM,0.0399319,216
mp-24153,LaH2,-0.7461309741666651,0.0,0.0,False,NM,5.22e-05,225
mp-1018144,LaH3,-0.685341640312499,0.0,0.0,False,NM,1e-07,225
mp-861617,LaHgAu2,-0.6220908443750021,0.0,0.0,False,NM,2.92e-05,225
mp-1185076,LaHoIn2,-0.465017795833332,0.0,0.0,False,NM,1e-05,225
mp-973091,LaHoMg2,-0.063145897499999,0.016991789375001003,0.0,False,NM,3.3700000000000006e-05,225
mp-973101,LaHoRu2,-0.202778059999997,0.118012689587054,0.0,False,NM,6.49e-05,225
mp-1185020,LaHoTl2,-0.36794750666666604,0.0,0.0,False,NM,0.0010553,225
mp-568917,LaInAg2,-0.40829247624999704,0.0,0.0,False,NM,1.0300000000000001e-05,225
mp-868003,LaInAu2,-0.7024288279166631,0.0,0.0,False,NM,1.0700000000000001e-05,225
mp-20491,LaInCu2,-0.27142022791666603,0.030221376500001004,0.0,False,NM,8.86e-05,225
mp-867979,LaInHg2,-0.5429520949999961,0.0,0.0,False,NM,0.000117299999999,225
mp-1077796,LaInPt4,-0.9150655574999951,0.0,0.0,False,NM,1.8e-06,216
mp-631430,LaInW,0.7566476949999981,1.189160633333337,0.0,False,NM,0.013874599999999002,216
mp-1222788,LaLuAl4,-0.5080502519444411,0.039461049999999005,0.0,False,NM,0.1098275,216
mp-1185068,LaLuIn2,-0.565642122916663,0.024300830999994003,0.0,False,NM,5.25e-05,225
mp-1185060,LaLuMg2,-0.064452017916668,0.015685668958333,0.0,False,NM,0.0002126,225
mp-1185069,LaLuTl2,-0.34037986208333804,0.010829956250001,0.0,False,NM,0.00013309999999900002,225
mp-1206372,LaMg2Ag,-0.098944289166666,0.10725787833333301,0.0,False,NM,0.00015649999999900002,225
mp-1206537,LaMg2TiO6,-2.380177790833333,0.9163510853750071,0.0,False,NM,0.999976,225
mp-2306,LaMg3,-0.10987347000000001,0.0,0.0,False,NM,1e-06,225
mp-867914,LaMgAg2,-0.27974616833333305,0.0006446235714250001,0.0,False,NM,2.13e-05,225
mp-1184999,LaMgAu2,-0.7297632149999991,0.0,0.0,False,NM,5.5e-05,225
mp-867848,LaMgCd2,-0.31252593499999903,0.0,0.0,False,NM,2e-07,225
mp-1517671,LaMgFeSnO6,-2.304869277500001,0.416218206499997,1.1086,True,FM,5.0000008,216
mp-867833,LaMgHg2,-0.48196893125000206,0.0,0.0,False,NM,2.299999999999998e-06,225
mp-631336,LaMgNb2,0.6505071599999991,0.7009090637500011,0.0,False,NM,0.123045999999999,225
mp-3289,LaMgNi4,-0.30678034666666504,0.0,0.0,True,FM,0.7138742,216
mp-962063,LaMgTl,-0.08727410111111401,0.274477562222223,0.0,False,NM,0.0005723,216
mp-973256,LaMgTl2,-0.298147689166671,0.016575830208334003,0.0,False,NM,0.00014199999999900002,225
mp-862662,LaMgZn2,-0.3320110325,0.0,0.0,False,NM,6.980000000000004e-05,225
mp-1283081,LaMnO3,-2.910514832586207,0.224749968023809,0.6151000000000001,True,FM,7.9999106,225
mp-256,LaN,-1.575390301875,0.0,0.0,False,NM,2.4e-06,225
mp-1222785,LaNdAl4,-0.546373473749999,0.005106325833333001,0.0,False,NM,6.7e-06,216
mp-973254,LaNdHg2,-0.569781256875003,0.0,0.0,True,FM,0.767618999999999,225
mp-1185040,LaNdIr2,-0.5754984856250001,0.10997290261904501,0.0,False,NM,1.02e-05,225
mp-1185071,LaNdMg2,-0.08863414812499901,0.008660991250001,0.0,False,NM,0.0004934,225
mp-1185025,LaNdTl2,-0.404152627291673,0.0,0.0,False,NM,0.000883,225
mp-973894,LaNdZn2,-0.313390088124998,0.0018844900000000002,0.0,False,NM,0.0004863,225
mp-961707,LaNiSb,-0.33136047833333304,0.6149036399999961,0.0,False,NM,0.0016055,216
mp-1206710,LaO,-3.204329645000001,0.025611121249999,0.0,False,NM,3.97e-05,225
mp-35555,LaOF,-4.195509371666668,0.06119905999999901,4.7503,False,NM,0.0017224999999990002,216
mp-631522,LaOs2Rh,0.758729136249998,1.128655299999998,0.0,True,FM,4.1492875,225
mp-2384,LaP,-1.816090526488093,0.0,0.0,False,NM,1e-07,225
mp-862663,LaPbAu2,-0.660741091249999,0.0,0.0,False,NM,5.799999999999999e-06,225
mp-1185601,LaPmGa2,-0.633483098125001,0.0,0.0,False,NM,5e-07,225
mp-1185004,LaPmIr2,-0.5989822931249971,0.0,0.0,True,FM,0.2754391,225
mp-1185131,LaPmMg2,-0.08494922812500101,0.01049013375,0.0,False,NM,0.0001753,225
mp-1185021,LaPmRu2,-0.09754150312499901,0.0027448845535730003,0.0,False,NM,1.0600000000000002e-05,225
mp-1185094,LaPmTl2,-0.40243132479167004,0.0,0.0,False,NM,0.0002696,225
mp-1185129,LaPmZn2,-0.334389218124997,0.0,0.0,False,NM,0.0008521,225
mp-1222762,LaPrAl4,-0.538230587777777,0.0028324424999990002,0.0,False,NM,3.0000000000000004e-05,216
mp-973887,LaPrHg2,-0.567685697916672,0.0,0.0,True,FM,0.7843867,225
mp-1006057,LaPrIn2,-0.6270155366666651,0.012041219583331,0.0,False,NM,4.5e-06,225
mp-1185045,LaPrIr2,-0.548091074166666,0.11538998737500102,0.0,False,NM,2e-06,225
mp-1185058,LaPrMg2,-0.088581189166665,0.0070703237500020005,0.0,False,NM,0.0005128999999990001,225
mp-1185089,LaPrTl2,-0.402013968333337,0.0,0.0,False,NM,0.0008382999999990001,225
mp-1185138,LaPrZn2,-0.307574546666666,0.0,0.0,False,NM,7.35e-05,225
mp-631674,LaRe2Ag,0.6918312399999991,0.8305751274999971,0.0,False,NM,0.006366999999999,216
mp-631343,LaRe2W,0.618709356250001,0.618709356250001,0.0,False,NM,0.00018219999999900002,216
mp-631508,LaReB,1.127003035039687,1.431116302777781,0.0,False,NM,0.2343031,216
mp-2350,LaS,-2.43041202890625,0.0,0.0,False,NM,3.5e-06,225
mp-1065,LaSb,-1.530235762500002,0.0,0.0,False,NM,9.6e-06,225
mp-961702,LaSbPt,-0.655499741666666,0.443621701149424,0.0,False,NM,0.0003941,216
mp-1161,LaSe,-2.2639832570312493,0.0,0.0,False,NM,0.0004744,225
mp-1222703,LaSmB12,-0.572230745357144,0.0,0.0,False,NM,0.0001582,225
mp-1185061,LaSmIr2,-0.613397045000001,0.09596663000000101,0.0,False,NM,3.2e-06,225
mp-1185603,LaSmMg2,-0.0812148075,0.011447158750002,0.0,False,NM,0.000127599999999,225
mp-1185038,LaSmTl2,-0.398615031666668,0.00011166750000100001,0.0,False,NM,0.003901,225
mp-972949,LaSmZn2,-0.31567576750000004,0.007090907499998001,0.0,False,NM,0.000488,225
mp-867118,LaSnAu2,-0.731593967499998,0.0,0.0,False,NM,0.0003025,225
mp-1560,LaTe,-1.804564845833335,0.0,0.0,False,NM,2.39e-05,225
mp-1222718,LaTi2TlO6,-3.1405498425,0.143124897875008,0.23700000000000002,False,NM,0.0014831,225
mp-1222721,LaTiAlPbO6,-3.184289496833332,0.057512848900019,2.507200000000001,False,NM,0.0003323,216
mp-867817,LaTlAg2,-0.26703385291666704,0.0,0.0,False,NM,6e-07,225
mp-867814,LaTlAu2,-0.612347314583337,0.0,0.0,False,NM,1.1e-06,225
mp-972971,LaTlHg2,-0.401539215833337,0.005482015000003,0.0,False,NM,1.1e-06,225
mp-1222699,LaTmB12,-0.504734486428574,0.043424055312501,0.0,False,NM,0.054518899999999,225
mp-1185130,LaTmMg2,-0.067569883750001,0.012567803124999001,0.0,False,NM,3.8200000000000014e-05,225
mp-1185046,LaTmTl2,-0.35403725291667004,0.005606385000003,0.0,False,NM,1.8e-05,225
mp-1222799,LaUAl4,-0.287825768333334,0.124435384583332,0.0,True,FM,2.6580578,216
mp-1222683,LaYAl4,-0.541201473333333,0.0226421425,0.0,False,NM,0.0014529,216
mp-1185136,LaYMg2,-0.07518692375000101,0.012403721250000001,0.0,False,NM,2.6400000000000005e-05,225
mp-1222695,LaYMg4,-0.07559320416666601,0.022448269999999,0.0,False,NM,0.0038526,216
mp-1185101,LaYZn2,-0.33583115624999804,0.0204210875,0.0,False,NM,0.588486699999999,225
mp-1185162,LaYb3,0.071767862500003,0.071767862500003,0.0,False,NM,3.7e-06,225
mp-865811,LaYbAg2,-0.28885911749999904,0.034165747500001,0.0,False,NM,3e-06,225
mp-1222685,LaYbAl4,-0.511851908333333,0.044457886666663005,0.0,False,NM,0.0006366,216
mp-1185027,LaYbAu2,-0.873191277500005,0.088638295624996,0.0,False,NM,1.25e-05,225
mp-865859,LaYbCd2,-0.35591983999999804,0.021662702499998,0.0,False,NM,0.0024498,225
mp-1185134,LaYbCu2,-0.17739955000000002,0.064645588124999,0.0,False,NM,3e-06,225
mp-865794,LaYbHg2,-0.546932408750002,0.029532195000001003,0.0,False,NM,2.08e-05,225
mp-1185064,LaYbMg2,-0.09626610499999701,0.012988416249999002,0.0,False,NM,7e-07,225
mp-1185078,LaYbPd2,-0.8363138899999991,0.098396807499998,0.0,False,NM,1.1000000000000001e-05,225
mp-1185013,LaYbPt2,-1.216698624999999,0.16416408812499803,0.0,False,NM,1.3400000000000002e-05,225
mp-1185052,LaYbRh2,-0.7970652425000001,0.140043502499999,0.0,False,NM,0.0629902,225
mp-1185086,LaYbTl2,-0.455358515,0.001968317500001,0.0,False,NM,1.1400000000000003e-05,225
mp-865833,LaYbZn2,-0.335202847499999,0.0009019749999970001,0.0,True,FM,0.2601205,225
mp-1185092,LaZn2Ag,-0.302387559374999,0.044811890000001006,0.0,False,NM,3.6800000000000014e-05,225
mp-867836,LaZnAu2,-0.59507854875,0.038238573411123,0.0,False,NM,0.0045162,225
mp-1520359,LaZnCrWO6,-2.190924400499999,0.42434185212499403,0.6011999999999991,True,FM,5.0000005,216
mp-1517894,LaZnFeSbO6,-2.0051032545,0.367560262349998,0.0,True,FM,4.6253664,216
mp-1518302,LaZnFeSnO6,-1.7431028069999992,0.706246761999996,0.0,True,FM,4.7017941,216
mp-51,Li,0.001672373333333,0.001672373333333,0.0,False,NM,3.799999999999998e-06,225
mp-1211289,Li(BH)3,-0.25890604494047603,0.140713433290812,0.0,False,NM,8.650000000000004e-05,225
mp-849476,Li17Ag12F29,-2.223470288333332,0.110442014655172,1.4076,False,NM,0.0005244,216
mp-574275,Li17Pb4,-0.287393139555554,0.0,0.0,False,NM,0.0005274,216
mp-573471,Li17Sn4,-0.35081354993650704,0.0,0.0,False,NM,0.0700505,216
mp-29720,Li21Si5,-0.20803175894230702,0.0,0.0,False,NM,0.0130044,216
mp-1204063,Li22Ge5,-0.27382447919753,0.014406307376543002,0.0,False,NM,0.8394029,216
mp-573651,Li22Pb5,-0.270948883456789,0.008461113333332,0.0,False,NM,0.0368456,216
mp-542598,Li22Si5,-0.18319499327160402,0.017131885709877,0.0,False,NM,0.002416299999999,216
mp-1198729,Li22Sn5,-0.33099884577160404,0.010069883333333,0.0,False,NM,0.5028399,216
mp-1185001,Li2AcAl,-0.116891227222225,0.020023434374998,0.0,False,NM,0.0027772,225
mp-865897,Li2AcIn,-0.340779062708332,0.0,0.0,False,NM,2.3500000000000002e-05,225
mp-865915,Li2AcPb,-0.306289522291665,0.0,0.0,False,NM,3.5e-06,225
mp-865913,Li2AcSn,-0.40551003104166705,0.0,0.0,False,NM,1.3400000000000002e-05,225
mp-976333,Li2AcTl,-0.27748408770833405,0.0,0.0,False,NM,3.8e-05,225
mp-1111365,Li2AgAsF6,-2.099296565583333,0.421820469458333,1.8182,False,NM,4.8e-06,225
mp-865879,Li2AgAu,-0.39391474458333403,0.0,0.0,False,NM,4e-07,225
mp-1184977,Li2AgBi,-0.371934438333333,0.04661847416666701,0.0,False,NM,2e-07,225
mp-569333,Li2AgBi,-0.39559465333333305,0.022958259166667,0.0,False,NM,0.0,216
mp-1184969,Li2AgGe,-0.24182931583333303,0.021377205434782002,0.0,False,NM,2.7e-06,225
mp-865874,Li2AgHg,-0.288340681458333,0.0,0.0,False,NM,1.5700000000000002e-05,225
mp-1184979,Li2AgPb,-0.25068034708333103,0.014386744999993002,0.0,False,NM,0.001789,225
mp-30349,Li2AgPb,-0.265067092083328,0.0,0.0,False,NM,3e-06,216
mp-865987,Li2AgPd,-0.310142087083333,0.0,0.0,False,NM,2e-07,225
mp-16238,Li2AgSb,-0.5181467695833331,0.0,0.14780000000000001,False,NM,0.0,216
mp-30350,Li2AgSn,-0.310074078333332,0.057912874999999,0.0,False,NM,0.00020879999999900002,225
mp-567347,Li2AgSn,-0.36798695333333203,0.0,0.0,False,NM,6e-07,216
mp-31168,Li2AlAg,-0.247168274583334,0.0,0.0,False,NM,4e-07,216
mp-1111366,Li2AlAgF6,-2.756073626722224,0.308726878499999,2.0864,False,NM,1.3500000000000001e-05,225
mp-1111683,Li2AlCuF6,-2.7895916756666663,0.318729440499995,0.07939999999999901,False,NM,9.6e-06,225
mp-1222668,Li2AlGa,-0.31113987333333204,0.0,0.0,False,NM,4.97e-05,216
mp-1111352,Li2AlHgF6,-2.647429631472228,0.45566136299999904,0.0,False,NM,0.016204899999999002,225
mp-30816,Li2AlPd,-0.5318623033333321,0.0,0.0,False,NM,1.0500000000000001e-05,216
mp-30818,Li2AlPt,-0.7543592208333331,0.0,0.0,False,NM,2.7e-06,216
mp-30820,Li2AlRh,-0.5350247866666661,0.05371851833333301,0.0,False,NM,9.6e-06,216
mp-1184982,Li2BiAu,-0.46415357291666803,0.026453100000001003,0.0,False,NM,1.86e-05,225
mp-567076,Li2BiAu,-0.47192984541666705,0.018676827500001002,0.0,False,NM,0.0003134,216
mp-1210743,Li2C,0.8478305273148151,0.914417564537036,0.0,True,FM,1.9325714,225
mp-1185028,Li2CaAl,-0.12865339794642802,0.019565215833333,0.0,False,NM,0.0138599,225
mp-865986,Li2CaGe,-0.42275544541666604,0.002683509583333,0.1008,False,NM,8.5e-06,225
mp-865890,Li2CaIn,-0.35424408083333203,0.0,0.0,False,NM,0.0003561,225
mp-865892,Li2CaPb,-0.418397809166666,0.0,0.0,False,NM,2.2200000000000004e-05,225
mp-865965,Li2CaSi,-0.301334511666666,0.0,0.0,False,NM,2e-07,225
mp-865964,Li2CaSn,-0.5072434679166661,0.0,0.0,False,NM,7.299999999999999e-06,225
mp-1185010,Li2CaTl,-0.308172815833334,0.005285529999998001,0.0,False,NM,0.0002427,225
mp-1184976,Li2CdAg,-0.21697415958333302,0.0111268925,0.0,False,NM,1e-06,225
mp-865577,Li2CdAu,-0.435236238333331,0.0,0.0,False,NM,2.8e-06,225
mp-1184983,Li2CdBi,-0.386866282083332,0.040163262500012,0.0,False,NM,3e-07,225
mp-10686,Li2CdGe,-0.24828230041666502,0.018787014458332002,0.0,False,NM,3e-06,225
mp-976114,Li2CdHg,-0.325240707708335,0.002678721249999,0.0,False,NM,5.799999999999999e-06,225
mp-1185034,Li2CdIn,-0.314233928333333,0.04210788249999901,0.0,False,NM,1.699999999999999e-06,225
mp-1222671,Li2CdIn,-0.35634181083333305,0.0,0.0,False,NM,2.8e-06,216
mp-11304,Li2CdPb,-0.230008844166665,0.030670387499998,0.0,False,NM,2e-07,216
mp-11305,Li2CdPb,-0.260679231666663,0.0,0.0,False,NM,3e-07,225
mp-865582,Li2CdPd,-0.373887099166666,0.0,0.0,False,NM,6.5e-06,225
mp-1184966,Li2CdPt,-0.44423298666666505,0.0020393512500000003,0.0,False,NM,3e-07,225
mp-16271,Li2CdSb,-0.43946156416666504,0.047925216590909,0.0,False,NM,0.0004093,225
mp-12580,Li2CdSn,-0.311749965416665,0.0,0.0,False,NM,2e-07,225
mp-865629,Li2CeAl,-0.10184905116666501,0.09590968333333301,0.0,True,FM,0.8405391,225
mp-1184980,Li2CeGa,-0.221387993333333,0.09146118541666501,0.0,True,FM,1.0536717,225
mp-1185247,Li2CeIn,-0.281301252351189,0.036984081071429004,0.0,True,FM,1.0062219,225
mp-865932,Li2CePb,-0.257140479166665,0.053676101071430005,0.0,True,FM,1.2560497,225
mp-1185039,Li2CeSn,-0.375663582916665,0.047086038596591,0.0,True,FM,1.2431297,225
mp-865971,Li2CeTl,-0.21057665250000202,0.060354812499998,0.0,True,FM,1.0131869,225
mp-1111099,Li2CoAgF6,-2.084272759833332,0.32498615475000103,1.7043,False,NM,1e-06,225
mp-1111351,Li2CoHgF6,-1.9896839149166672,0.489709096,0.0,True,FM,1.0001251,225
mp-1206748,Li2CoSb,-0.143023661388888,0.37481654750000004,0.0,True,FM,1.8919601,225
mp-1111900,Li2CrCuF6,-2.470096772666667,0.30877656750000004,0.5853,True,FiM,2.999997,225