material_id,formula,formation_energy,ehull,band_gap,is_magnetic_x,magnetic_ordering,total_magnetization_x,spacegroup,heusler_type,is_magnetic_y,total_magnetization_y
mp-1018041,Ti2MnIn,-0.051165427816092,0.140179595550001,0.0137,True,FiM,0.0011558,216,full,True,0.0011558
mp-865569,Ti2MnIr,-0.702065421149425,0.0,0.0,False,NM,0.0,225,full,False,0.0
mp-865712,Ti2MnNi,-0.338393503649425,0.0,0.0,True,FM,1.0200602,225,full,True,1.0200602
mp-865768,Ti2MnOs,-0.504274896149425,0.0,0.0,True,FiM,0.7016793,225,full,True,0.7016793
mp-972396,Ti2MnRe,-0.298680711774427,0.022898578449995,0.0,True,FiM,1.4459491,225,full,True,1.4459491
mp-866218,Ti2MnRh,-0.572736533649425,0.0,0.0,False,NM,1.62e-05,225,full,False,1.62e-05
mp-865469,Ti2MnRu,-0.504777263649424,0.0,0.0,True,FiM,0.7026108,225,full,True,0.7026108
mp-999047,Ti2MnSi,-0.333914796149425,0.244472944375003,0.0,True,FM,0.026573299999999,216,full,True,0.026573299999999
mp-999083,Ti2MnSn,-0.144651599899425,0.179744865133929,0.0,True,FiM,1.049192,216,full,True,1.049192
mp-1187433,Ti2MnTc,-0.355364762399426,0.010174555616666,0.0,True,FiM,1.7444215,225,full,True,1.7444215
mp-865807,Ti2MoIr,-0.6356605766666661,0.0,0.0,False,NM,1.4700000000000002e-05,225,full,False,1.4700000000000002e-05
mp-1187420,Ti2MoOs,-0.446474903333331,0.021620270000003,0.0,False,NM,8e-07,225,full,False,8e-07
mp-1187417,Ti2MoPd,-0.395192630833332,0.0,0.0,False,NM,1.8e-06,225,full,False,1.8e-06
mp-865803,Ti2MoPt,-0.697750280833332,0.0,0.0,False,NM,5e-07,225,full,False,5e-07
mp-865529,Ti2NiIr,-0.6409541466666661,0.0,0.0,False,NM,2.8900000000000005e-05,225,full,False,2.8900000000000005e-05
mp-865591,Ti2NiMo,-0.285534419166667,0.0,0.0,False,NM,5.6300000000000006e-05,225,full,False,5.6300000000000006e-05
mp-1187424,Ti2OsRh,-0.7089899566666661,0.015226427499998,0.0,False,NM,0.0009739,225,full,False,0.0009739
mp-865842,Ti2OsRu,-0.8354517870833361,0.0,0.0,False,NM,2e-07,225,full,False,2e-07
mp-865717,Ti2ReIr,-0.7583951897916651,0.0,0.0,False,NM,4.03e-05,225,full,False,4.03e-05
mp-865728,Ti2ReNi,-0.426863662291667,0.0,0.0,True,FM,0.802765499999999,225,full,True,0.802765499999999
mp-865533,Ti2ReOs,-0.6421273164583351,0.003561513125056,0.0,False,NM,1.86e-05,225,full,False,1.86e-05
mp-865538,Ti2RePd,-0.5250984064583331,0.0,0.0,False,NM,2.1e-06,225,full,False,2.1e-06
mp-865877,Ti2RePt,-0.7411143114583321,0.069125050000003,0.0,False,NM,0.0005296,225,full,False,0.0005296
mp-865948,Ti2ReRh,-0.6564465847916661,0.0,0.0,False,NM,5e-07,225,full,False,5e-07
mp-972275,Ti2ReRu,-0.6359912952083341,0.008236759999999,0.0,False,NM,0.000468799999999,225,full,False,0.000468799999999
mp-972241,Ti2ReTc,-0.485926931458333,0.0,0.0,False,NM,2.3800000000000003e-05,225,full,False,2.3800000000000003e-05
mp-1187444,Ti2RuRh,-0.7358315641666661,0.0164103225,0.0,False,NM,2.8300000000000003e-05,225,full,False,2.8300000000000003e-05
mp-865840,Ti2TcIr,-0.8466084554166671,0.0,0.0,False,NM,1.7000000000000003e-05,225,full,False,1.7000000000000003e-05
mp-865878,Ti2TcNi,-0.479777200416666,0.0,0.0,False,NM,0.003181,225,full,False,0.003181
mp-865876,Ti2TcOs,-0.7029357108333331,0.0,0.0,False,NM,7.650000000000003e-05,225,full,False,7.650000000000003e-05
mp-865931,Ti2TcPd,-0.565572565833331,0.0,0.0,False,NM,2.44e-05,225,full,False,2.44e-05
mp-865928,Ti2TcPt,-0.8098699183333301,0.0,0.0,False,NM,6.04e-05,225,full,False,6.04e-05
mp-865649,Ti2TcRh,-0.733145390416666,0.0,0.0,False,NM,2.4e-06,225,full,False,2.4e-06
mp-865650,Ti2TcRu,-0.695527502083333,0.0,0.0,False,NM,3.55e-05,225,full,False,3.55e-05
mp-972238,Ti2VIr,-0.5512849641666651,0.0,0.0,True,FM,1.8804695999999992,225,full,True,1.8804695999999992
mp-1187461,Ti2VOs,-0.497007345833331,0.0,0.0,True,FM,5.6332112,225,full,True,5.6332112
mp-866183,Ti2ZnRe,-0.314001892291667,0.0,0.0,False,NM,0.0001907,225,full,False,0.0001907
mp-866187,Ti2ZnTc,-0.346340317916661,0.0,0.0,False,NM,6.7e-06,225,full,False,6.7e-06
mp-16482,TiAlAu2,-0.476786744166666,0.028322346666666,0.0,False,NM,6e-06,225,full,False,6e-06
mp-5407,TiAlCo2,-0.6043146191666661,0.0,0.0,True,FiM,1.0003066,225,full,True,1.0003066
mp-4771,TiAlCu2,-0.335837534166666,0.0,0.0,False,NM,2e-07,225,full,False,2e-07
mp-31187,TiAlFe2,-0.454166500833332,0.0,0.0,True,FiM,0.973423199999999,225,full,True,0.973423199999999
mp-1187464,TiAlIr2,-0.907798535833331,0.000500310000003,0.0,True,FM,0.9783731,225,full,True,0.9783731
mp-7187,TiAlNi2,-0.623069183333332,0.0,0.0,False,NM,7.21e-05,225,full,False,7.21e-05
mp-865442,TiAlOs2,-0.695056386666667,0.002101471153842,0.0,False,NM,2.03e-05,225,full,False,2.03e-05
mp-865441,TiAlPd2,-0.7750691391666641,0.0,0.0,False,NM,0.000304099999999,225,full,False,0.000304099999999
mp-866153,TiAlRh2,-0.983009850833333,0.0,0.0,False,NM,4e-07,225,full,False,4e-07
mp-866155,TiAlRu2,-0.830631444166666,0.0,0.0,False,NM,3e-07,225,full,False,3e-07
mp-961718,TiAsRh,-0.428971386944444,0.443658255833334,0.0,False,NM,0.0009155,216,half,False,0.0009155
mp-1100442,TiAuBr,0.253401070555555,1.211767545555555,0.0,False,NM,0.0002017,216,half,False,0.0002017
mp-962077,TiAuCl,0.144590312638882,1.232790341111115,0.0,False,NM,0.0004964,216,half,False,0.0004964
mp-866139,TiBe2Ir,-0.5618180808333341,0.0,0.0,False,NM,0.0,225,full,False,0.0
mp-1187463,TiBe2Pt,-0.575025725833334,0.015290991499997,0.0,False,NM,0.2113319,225,full,False,0.2113319
mp-866152,TiBeCo2,-0.422010977083334,0.0,0.0,False,NM,2.4e-06,225,full,False,2.4e-06
mp-866154,TiBeIr2,-0.8116055345833341,0.0,0.0,False,NM,3e-07,225,full,False,3e-07
mp-866143,TiBeRh2,-0.791811782083327,0.0,0.0,False,NM,1.22e-05,225,full,False,1.22e-05
mp-961722,TiBiRh,-0.031065807777778,0.463182276666668,0.0,False,NM,0.0021789,216,half,False,0.0021789
mp-4612,TiCo2Ge,-0.499881817083333,0.0,0.0,True,FiM,2.0001207,225,full,True,2.0001207
mp-3657,TiCo2Si,-0.6928583329166661,0.0,0.0,True,FM,2.000001,225,full,True,2.000001
mp-21467,TiCo2Sn,-0.371400094583333,0.0,0.0,True,FiM,2.0005216,225,full,True,2.0005216
mp-961700,TiCoAs,-0.234874532222221,0.467701365000001,0.0,True,FiM,0.934520399999999,216,half,True,0.934520399999999
mp-5967,TiCoSb,-0.658718782222221,0.0,1.043199999999999,False,NM,0.0,216,half,False,0.0
mp-1216949,TiCoSn,-0.316109056111111,0.069511311319444,0.0,True,FM,0.976952399999999,216,half,True,0.976952399999999
mp-20453,TiCoSn,0.307187757222222,0.6928081246527791,0.0,True,FM,1.0533154,216,half,True,0.976952399999999
mp-631575,TiCrAg,0.8785086724999991,0.914861944722224,0.0,True,FM,3.152066699999999,216,half,True,3.152066699999999
mp-1187470,TiCrTc2,-0.221970386666665,0.037379602499999,0.0,True,FM,0.043851999999999,225,full,True,0.043851999999999
mp-1207191,TiCu2Sb,0.087509524761905,0.364478021428571,0.0,True,FM,0.9422967,225,full,True,0.9422967
mp-1206917,TiCu2Sn,-0.067168944401041,0.11485032296875,0.0,False,NM,0.0316617,225,full,False,0.0316617
mp-1100413,TiCuB,-0.237408117743055,0.372346974479166,0.1793,False,NM,0.0004163,216,half,False,0.0004163
mp-11882,TiCuHg2,0.179231340677084,0.251147664999997,0.0,False,NM,0.0040013,216,full,False,0.0040013
mp-999002,TiFe2As,-0.329577977708333,0.172474867500002,0.0,True,FiM,1.0051516,225,full,True,1.0051516
mp-866375,TiFe2Ge,-0.479640722083333,0.0,0.170899999999999,False,NM,0.0,225,full,False,0.0
mp-998970,TiFe2Sb,-0.296498755833333,0.027202134999995,0.0,True,FiM,1.0039343,225,full,True,1.0039343
mp-866141,TiFe2Si,-0.6748571133333341,0.0,0.401599999999998,False,NM,0.0,225,full,False,0.0
mp-19963,TiFe2Sn,-0.269572492083334,0.0,0.0487,False,NM,4.85e-05,225,full,False,4.85e-05
mp-10755,TiFeSb,-0.431601187777778,0.0,0.0,True,FiM,0.9880355999999992,216,half,True,0.9880355999999992
mp-961660,TiFeSe,-0.740190481892361,0.195992152500001,0.860599999999999,False,NM,0.000175399999999,216,half,False,0.000175399999999
mp-22589,TiFeSn,0.407512533888889,0.7100512963333321,0.0,True,FiM,1.4770855,216,half,True,1.4770855
mp-961673,TiFeTe,-0.650884536666657,0.0,0.9852,False,NM,0.0,216,half,False,0.0
mp-20145,TiGaCo2,-0.515181305208333,0.0,0.0,True,FiM,1.0139966,225,full,True,1.0139966
mp-1187459,TiGaCu2,-0.236540667708332,0.0,0.0,False,NM,1e-06,225,full,False,1e-06
mp-636320,TiGaFe2,-0.360470262708332,0.0,0.0,True,FiM,0.9416348,225,full,True,0.9416348
mp-866142,TiGaIr2,-0.6825293677083321,0.000100714500002,0.0,True,FM,1.0014568,225,full,True,1.0014568
mp-30657,TiGaNi2,-0.5410241252083321,0.0,0.0,False,NM,1.4100000000000002e-05,225,full,False,1.4100000000000002e-05
mp-866140,TiGaPd2,-0.6581097702083271,0.0,0.0,False,NM,4.43e-05,225,full,False,4.43e-05
mp-567679,TiGaRh,-0.167541206944444,0.5522633249999961,0.0,False,NM,0.0002503,216,half,False,0.0002503
mp-866157,TiGaRh2,-0.843888940208326,0.0,0.0,False,NM,3e-07,225,full,False,3e-07
mp-865448,TiGaRu2,-0.620254325208332,0.0,0.0,False,NM,1.48e-05,225,full,False,1.48e-05
mp-1187473,TiGaTc2,-0.279868680208333,0.014973979999998,0.0,False,NM,3.97e-05,225,full,False,3.97e-05
mp-1008680,TiGePt,-0.980682975555552,0.0,0.8822000000000001,False,NM,0.0,216,half,False,0.0
mp-961671,TiGePt,-0.5181297755555551,0.462553199999998,0.0,False,NM,0.0002069,216,half,False,0.0
mp-1187497,TiGeRh2,-0.661962002083333,0.045937554999996,0.0,False,NM,0.0467053,225,full,False,0.0467053
mp-865640,TiGeRu2,-0.764102924166667,0.0,0.0,False,NM,6e-07,225,full,False,6e-07
mp-621348,TiInAu2,-0.284744942499999,0.064867727500001,0.0,False,NM,0.0040923,225,full,False,0.0040923
mp-865548,TiInCo2,-0.224757665,0.0,0.0,True,FiM,1.1831027,225,full,True,1.1831027
mp-22725,TiInCu2,-0.107351714999998,0.0,0.0,False,NM,7.05e-05,225,full,False,7.05e-05
mp-998965,TiInFe2,-0.037745229999999,0.174793698333333,0.0,True,FiM,0.9719777,225,full,True,0.9719777
mp-22463,TiInNi2,-0.335994847499999,0.032136004999996,0.0,False,NM,1.6400000000000002e-05,225,full,False,1.6400000000000002e-05
mp-866168,TiInPd2,-0.5699135724999991,0.0,0.0,False,NM,5.12e-05,225,full,False,5.12e-05
mp-866170,TiInRh2,-0.6416888299999971,0.0,0.0,False,NM,0.0022226,225,full,False,0.0022226
mp-865531,TiMn2Al,-0.335619669798851,0.0,0.0,True,FiM,4.4163424,225,full,True,4.4163424
mp-865780,TiMn2Ga,-0.23709498417385,0.033829182187499,0.0,True,FiM,3.0322184,225,full,True,3.0322184
mp-866376,TiMn2Ge,-0.340109056048851,0.034273724267244,0.0,True,FiM,1.989115099999999,225,full,True,1.989115099999999
mp-865652,TiMn2Si,-0.5069638372988511,0.0,0.0,True,FiM,2.0001942,225,full,True,2.0001942
mp-865678,TiMn2V,-0.276929562298851,0.0,0.0,True,FiM,0.8560186,225,full,True,0.8560186
mp-865656,TiMn2W,-0.24186066979885,0.0,0.0,False,NM,9e-07,225,full,False,9e-07
mp-865537,TiMnCo2,-0.280869345316093,0.0,0.0,True,FiM,5.0148001,225,full,True,5.0148001
mp-1187499,TiMnIr2,-0.5778051828160901,0.00306081551724,0.0,True,FM,4.9557426,225,full,True,4.9557426
mp-865523,TiMnRh2,-0.570469517816091,0.0,0.0,True,FM,4.9304371,225,full,True,4.9304371
mp-1187245,TiMo2W,-0.111944689166662,0.001080313157899,0.0,False,NM,0.0001193,225,full,False,0.0001193
mp-865653,TiNbRe2,-0.432791937916661,0.0,0.0,False,NM,4.5e-05,225,full,False,4.5e-05
mp-980649,TiNbRu2,-0.5052464116666681,0.031425779166667,0.0,False,NM,0.001164299999999,225,full,False,0.001164299999999
mp-865655,TiNbTc2,-0.487201369166665,0.0,0.0,False,NM,3.46e-05,225,full,False,3.46e-05
mp-10261,TiNi2Sb,-0.402608968333332,0.098220998958332,0.0,False,NM,0.0109319,225,full,False,0.0109319
mp-3740,TiNi2Sn,-0.432280602083332,0.035854841160712,0.0,False,NM,0.0055841,225,full,False,0.0055841
mp-961694,TiNiGe,-0.012492179444444,0.663704380833332,0.0,False,NM,0.007672099999999,216,half,False,0.007672099999999
mp-20952,TiNiSb,-0.557564111111111,0.0,0.0,False,NM,6.04e-05,216,half,False,6.04e-05
mp-581712,TiNiSb,-0.10099648111111,0.456567630000001,0.0,False,NM,0.0002004,216,half,False,6.04e-05
mp-22782,TiNiSn,0.170788010555555,0.70021036,0.0,False,NM,0.0010504,216,half,False,0.0010504
mp-623646,TiNiSn,0.134768280555556,0.664190630000001,0.0,False,NM,4e-07,216,half,False,0.0010504
mp-924130,TiNiSn,-0.529422349444445,0.0,0.4527,False,NM,0.0,216,half,False,0.0010504
mp-961705,TiPtPb,-0.148132700555564,0.52099810166667,0.0,False,NM,0.0001002,216,half,False,0.0001002
mp-1187511,TiRe2Mo,-0.352883280416662,0.0,0.0,False,NM,2.1800000000000005e-05,225,full,False,2.1800000000000005e-05
mp-865664,TiRe2W,-0.407078482916666,0.0,0.0,False,NM,1.3100000000000002e-05,225,full,False,1.3100000000000002e-05
mp-865665,TiReTc2,-0.322698332291665,0.039950444809662,0.0,False,NM,6.54e-05,225,full,False,6.54e-05
mp-1206908,TiSbRh,-0.33756545111111,0.31626119282051,0.0,False,NM,0.000976,216,half,False,0.000976
mp-31458,TiSbRu,-0.44228286472222,0.152073640416666,0.0,False,NM,0.0180123,216,half,False,0.0180123
mp-865680,TiSiOs2,-0.722548200416667,0.0,0.0,False,NM,1e-07,225,full,False,1e-07
mp-961659,TiSiPd,-0.6683081322222241,0.196909207499997,0.4087,False,NM,0.000386899999999,216,half,False,0.000386899999999
mp-961706,TiSiPt,-1.010377284722219,0.060328260833333,0.9013,False,NM,0.0,216,half,False,0.0
mp-865681,TiSiRu2,-0.961267170416668,0.0,0.0,False,NM,1e-07,225,full,False,1e-07
mp-865669,TiSiTc2,-0.582430327916668,0.0,0.0,False,NM,0.000477599999999,225,full,False,0.000477599999999
mp-1216635,TiSnIr,-0.5687147961111131,0.00829469742424,0.0,True,FM,0.9995242,216,half,True,0.9995242
mp-961682,TiSnPd,-0.6324236455555551,0.0,0.203899999999999,False,NM,0.0,216,half,False,0.0
mp-865679,TiSnPd2,-0.603945289166667,0.023623566874999,0.0,False,NM,3.1e-06,225,full,False,3.1e-06
mp-30847,TiSnPt,-0.938612322222217,0.0,0.7908000000000001,False,NM,0.0,216,half,False,0.0
mp-1206684,TiSnRh,-0.117595562777777,0.437860111775362,0.0,False,NM,0.0005071,216,half,False,0.0005071
mp-1216641,TiSnRh,-0.551326402777775,0.004129271775363,0.0,True,FM,1.016326,216,half,False,0.0005071
mp-865707,TiSnRh2,-0.656580962083332,0.0,0.0,False,NM,0.0084978,225,full,False,0.0084978
mp-865888,TiSnRu2,-0.6434530166666651,0.0,0.0,False,NM,0.0,225,full,False,0.0
mp-1187489,TiTc2Ge,-0.405733914166667,0.0,0.0,False,NM,0.001753099999999,225,full,False,0.001753099999999
mp-866213,TiTc2Mo,-0.395030951666662,0.0,0.0,False,NM,1e-07,225,full,False,1e-07
mp-865809,TiTc2Sb,-0.401527039166666,0.0,0.0,False,NM,1e-06,225,full,False,1e-06
mp-1187492,TiTc2Sn,-0.267453366666664,0.0,0.0,False,NM,6.810000000000004e-05,225,full,False,6.810000000000004e-05
mp-865810,TiTc2W,-0.445987401666666,0.0,0.0,False,NM,2.299999999999998e-06,225,full,False,2.299999999999998e-06
mp-961646,TiTeOs,-0.299078620555557,0.389576181666665,0.4377,False,NM,0.001679,216,half,False,0.001679
mp-1100412,TiTeRu,-0.533593638055554,0.193916748750002,0.786099999999999,False,NM,0.0023212,216,half,False,0.0023212
mp-631374,TiTl2W,0.792433242500003,0.8037247858333311,0.0,False,NM,0.003374599999999,225,full,False,0.003374599999999
mp-865916,TiVRe2,-0.464953390416667,0.0,0.0,False,NM,1.7000000000000003e-05,225,full,False,1.7000000000000003e-05
mp-1100772,TiVRu2,-0.5375355541666661,0.035782759999996,0.0,True,FiM,0.4381981,225,full,True,0.4381981
mp-865914,TiVTc2,-0.497073459166667,0.0,0.0,False,NM,0.0010389,225,full,False,0.0010389
mp-631373,TiVW,1.122897118888886,1.163865205555552,0.0,True,FiM,0.6862317,216,half,True,0.6862317
mp-1187491,TiZn2Pd,-0.377180055833332,0.016788422499998,0.0,False,NM,5.9e-06,225,full,False,5.9e-06
mp-865730,TiZnAu2,-0.350653943333334,0.0,0.0,False,NM,9.4e-06,225,full,False,9.4e-06
mp-865898,TiZnCo2,-0.344126065833333,0.0,0.0,False,NM,3e-06,225,full,False,3e-06
mp-865930,TiZnCu2,-0.166646768333333,0.0,0.0,False,NM,4.67e-05,225,full,False,4.67e-05
mp-865048,TiZnIr2,-0.7074610533333321,0.0,0.0,False,NM,4.4e-06,225,full,False,4.4e-06
mp-865093,TiZnNi2,-0.401892963333332,0.0,0.0,False,NM,8.7e-06,225,full,False,8.7e-06
mp-865079,TiZnPd2,-0.581745330833332,0.0,0.0,False,NM,6e-06,225,full,False,6e-06
mp-861619,TiZnPt2,-0.742613298333331,0.018284721666664,0.0,False,NM,1.03e-05,225,full,False,1.03e-05
mp-861961,TiZnRh2,-0.7726216583333261,0.0,0.0,False,NM,8e-07,225,full,False,8e-07
mp-631548,Tl2SiNi,0.638950250833332,0.8742779852083331,0.0,False,NM,0.011812099999999,225,full,False,0.011812099999999
mp-1187527,TlAgPd2,-0.171764640892853,0.007857433869041,0.0,False,NM,0.000163099999999,225,full,False,0.000163099999999
mp-631519,TlBCl2,0.420787941874998,1.56157055722222,0.7963,False,NM,5.2e-06,216,full,False,5.2e-06
mp-631520,TlBTe2,0.8922200985416651,1.169862165625,0.0,False,NM,0.0018223,216,full,False,0.0018223
mp-866188,TlCdRh2,-0.076934552499995,0.0,0.0,False,NM,9e-06,225,full,False,9e-06
mp-631563,TlCoAs2,0.617852347291666,0.8354406266666671,0.0,False,NM,2.499999999999999e-06,225,full,False,2.499999999999999e-06
mp-631546,TlCoBi,0.8453412447777751,0.859769715333328,0.0,True,FM,1.9878366,216,half,True,1.9878366
mp-631559,TlCoMo2,0.6595458695833321,0.6595458695833321,0.0,True,FiM,0.2043644,216,full,True,0.2043644
mp-631428,TlCoW,1.413196156666671,1.413196156666671,0.0,True,FiM,1.0692232,216,half,True,1.0692232
mp-631371,TlCuIr,0.526797712222228,0.526797712222226,0.0,False,NM,0.0001946,216,half,False,0.0001946
mp-865232,TlPd2Au,-0.186587697499994,0.003176981124994,0.0,False,NM,0.0,225,full,False,0.0
mp-631409,TlTcIr2,0.624160577812503,0.7793902272916711,0.0,True,FM,3.931463,225,full,True,3.931463
mp-631475,TlZn2Tc,0.5903279925,0.6800756266666631,0.0,False,NM,3.9e-06,216,full,False,3.9e-06
mp-1187588,Tm2AgAu,-0.6765553587500001,0.004178418749994,0.0,False,NM,2e-07,225,full,False,2e-07
mp-979176,Tm2AgHg,-0.468254340625001,0.0,0.0,False,NM,8e-07,225,full,False,8e-07
mp-865300,Tm2AgIr,-0.663874632916668,0.018141618281253,0.0,False,NM,3e-07,225,full,False,3e-07
mp-865279,Tm2AgOs,-0.398710633749999,0.0,0.0,False,NM,2e-07,225,full,False,2e-07
mp-865281,Tm2AgPt,-0.8966955737499941,0.012716216249991,0.0,False,NM,2.35e-05,225,full,False,2.35e-05
mp-865282,Tm2AgRu,-0.40883406291667,0.0,0.0,False,NM,3e-07,225,full,False,3e-07
mp-865283,Tm2AlOs,-0.412836122500003,0.105827137511944,0.0,False,NM,7.099999999999996e-06,225,full,False,7.099999999999996e-06
mp-1187586,Tm2AlRu,-0.408168417500003,0.090300906490384,0.0,False,NM,1.1e-06,225,full,False,1.1e-06
mp-979012,Tm2AlZn,-0.424710746250003,0.013051681249997,0.0,False,NM,0.005166599999999,225,full,False,0.005166599999999
mp-979042,Tm2BeOs,-0.143707006250004,0.15739631269853,0.0,False,NM,6.92e-05,225,full,False,6.92e-05
mp-979258,Tm2CdHg,-0.372334788125004,0.011264665,0.0,False,NM,1.2e-06,225,full,False,1.2e-06
mp-865302,Tm2CdIn,-0.36231210666667,0.0,0.0,False,NM,0.0014187,225,full,False,0.0014187
mp-865284,Tm2CdOs,-0.252832527500003,0.063674572249999,0.0,False,NM,5.9e-06,225,full,False,5.9e-06
mp-979043,Tm2CoCu,-0.238332755000003,0.017468470250001,0.0,True,FiM,0.384904099999999,225,full,True,0.384904099999999
mp-865309,Tm2CoIr,-0.6025380450000031,0.048179686406251,0.0,True,FiM,0.223378599999999,225,full,True,0.223378599999999
mp-865303,Tm2CoOs,-0.211231460000002,0.085494495437502,0.0,False,NM,0.0016104,225,full,False,0.0016104
mp-865304,Tm2CoRu,-0.334499612500004,0.005069884374998,0.0,False,NM,0.0033872,225,full,False,0.0033872
mp-979044,Tm2CuAu,-0.582019662500003,0.013913973750001,0.0,False,NM,6.450000000000001e-05,225,full,False,6.450000000000001e-05
mp-865307,Tm2CuIr,-0.6633023075000001,0.003487809930557,0.0,False,NM,2.6e-06,225,full,False,2.6e-06
mp-865306,Tm2CuOs,-0.38454446,0.0,0.0,False,NM,1.3e-06,225,full,False,1.3e-06
mp-979045,Tm2CuPd,-0.6310741000000021,0.010871334999997,0.0,False,NM,1.2900000000000002e-05,225,full,False,1.2900000000000002e-05
mp-865317,Tm2CuPt,-0.8823360549999961,0.015227007500001,0.0,False,NM,2e-07,225,full,False,2e-07
mp-1187608,Tm2CuRh,-0.6182651450000011,0.0155797925,0.0,False,NM,6.799999999999997e-06,225,full,False,6.799999999999997e-06
mp-865319,Tm2CuRu,-0.403783090000001,0.0,0.0,False,NM,1e-06,225,full,False,1e-06
mp-977593,Tm2CuTc,-0.178630623037282,0.083398171041665,0.0,False,NM,8e-05,225,full,False,8e-05
mp-1187631,Tm2GaCu,-0.497977452500006,0.020324151249997,0.0,False,NM,6.47e-05,225,full,False,6.47e-05
mp-865339,Tm2GaOs,-0.505196085000001,0.074884792578124,0.0,False,NM,1.5300000000000003e-05,225,full,False,1.5300000000000003e-05
mp-1187575,Tm2GaRu,-0.502075566875003,0.001921095625,0.0,False,NM,6.5e-06,225,full,False,6.5e-06