material_id,formula,formation_energy,ehull,band_gap,is_magnetic,magnetic_ordering,total_magnetization,spacegroup
mp-982870,HfAlIr2,-0.9256413600000001,0.027841117499999003,0.0,False,NM,0.2454237,225
mp-5748,HfAlNi2,-0.6473235700000011,0.0,0.0,False,NM,1.1000000000000001e-05,225
mp-16501,HfAlPd2,-0.852085152499999,0.0,0.0,False,NM,1.1e-06,225
mp-1206362,HfAlPt2,-1.117120210625003,0.07868096437499601,0.0,False,NM,0.0013613,225
mp-864671,HfAlRh2,-1.097746739999998,0.0,0.0,False,NM,0.00016979999999900002,225
mp-864909,HfAlRu2,-0.8224986375000001,0.0,0.0,False,NM,0.0,225
mp-1224316,HfAlW4,0.102646734999998,0.27346338625002103,0.0,False,NM,8.960000000000001e-05,216
mp-961719,HfAsRh,-0.36594776249999905,0.47979504166666803,0.0,False,NM,0.0010329,216
mp-345,HfB,-0.46371863625000304,0.349917074999996,0.0,False,NM,0.0009075999999990001,225
mp-1001600,HfB12,-0.193911678461539,0.056437771153838,0.0,False,NM,0.0,225
mp-631510,HfBe2Bi,0.8497631600000001,1.043480058357841,0.0,False,NM,0.0035507,216
mp-1184576,HfBeIr2,-0.7256527887499991,0.0165117475,0.0,False,NM,2.899999999999999e-06,225
mp-865163,HfBeRh2,-0.772553663750001,0.0,0.0,False,NM,5.9e-06,225
mp-961721,HfBiRh,-0.009774945151524,0.611370216666657,0.0,False,NM,0.0007871999999990001,216
mp-1002124,HfC,-0.48147441,0.641422025,0.2957,False,NM,0.000137,216
mp-21075,HfC,-1.122896435000001,0.0,0.0,False,NM,2e-06,225
mp-865164,HfCdCu2,-0.089468064999999,0.039304211250001005,0.0,False,NM,0.0008732999999990001,225
mp-865174,HfCdRh2,-0.7365736325000001,0.0,0.0,False,NM,9.499999999999994e-06,225
mp-20730,HfCo2Sn,-0.39512803375000005,0.0,0.0,True,FiM,2.0004765,225
mp-571185,HfCoSb,0.23018884067619103,0.6413693338095251,0.0,False,NM,0.0032987,216
mp-865176,HfCu3,-0.088264962499999,0.073997592576221,0.0,False,NM,0.0008332,225
mp-30582,HfCuHg2,0.144864706249997,0.23382354459374802,0.0,False,NM,6.7e-06,216
mp-866051,HfFe2Sn,-0.24963036624999702,0.009963828750001002,0.020999999999999002,False,NM,0.0,225
mp-1206605,HfFeF6,-3.41574119875,0.13400660729167502,0.0,True,FM,3.9963984,225
mp-3576,HfGaCo2,-0.4638731675,0.0,0.0,True,FiM,1.0214256,225
mp-865998,HfGaIr2,-0.723468209374999,0.012137372000001001,0.0,True,FM,0.9574946,225
mp-3498,HfGaNi2,-0.557136344374998,0.008806291032259,0.0,False,NM,3.33e-05,225
mp-865019,HfGaRh2,-0.8941999968749931,0.0,0.0,True,FM,0.446774399999999,225
mp-865010,HfGaRu2,-0.670260705,0.0,0.0,False,NM,9.79e-05,225
mp-631549,HfGeB2,1.231745602500002,2.045381313749999,0.0,False,NM,0.001238599999999,216
mp-961676,HfGePt,-0.46742184833334005,0.513674230000006,0.0,False,NM,4.39e-05,216
mp-1184684,HfGeRu2,-0.723460469999999,0.0,0.0,False,NM,2.6e-06,225
mp-574025,HfInAu2,-0.46466748296874905,0.045808078593751,0.0,False,NM,0.0001682,225
mp-864715,HfInCo2,-0.281194352500001,0.0,0.0,True,FiM,1.1348593,225
mp-600125,HfInCu2,-0.161315811666666,0.0,0.0,False,NM,1.98e-05,225
mp-640024,HfInNi2,-0.39295919166666504,0.034639293120964004,0.0,False,NM,5.099999999999999e-06,225
mp-864734,HfInPd2,-0.7379010299999991,0.0,0.0,False,NM,1.5e-06,225
mp-865066,HfInRh2,-0.853484677499999,0.0,0.0,False,NM,0.0112416,225
mp-1094180,HfMg,0.9847683775000001,0.9847683775000001,0.0,False,NM,6.65e-05,225
mp-1094183,HfMg,2.183545222500001,2.183545222500001,0.0,False,NM,0.320299,216
mp-1094184,HfMg3,0.22092444875000003,0.22092444875000003,0.0,False,NM,0.0001516,225
mp-983123,HfMgAu2,-0.5695663937499961,0.0,0.0,False,NM,2.86e-05,225
mp-865020,HfMgIr2,-0.83837989375,0.0,0.0,False,NM,2e-06,225
mp-865049,HfMgPd2,-0.7176808237499971,0.0,0.0,False,NM,8e-07,225
mp-1184572,HfMgPt2,-0.999907633749999,0.0,0.0,False,NM,2.7e-06,225
mp-865050,HfMgRh2,-0.863708256249999,0.0,0.0,False,NM,0.0,225
mp-1205992,HfMnF6,-3.762555499741379,0.0,4.9479,True,FM,5.0000004,225
mp-1184581,HfMnIr2,-0.622707136982757,0.022822161767241,0.0,True,FM,4.8995528,225
mp-865091,HfMnRh2,-0.887145171120689,0.0,0.0,True,FM,4.911769,225
mp-631324,HfMnTl,0.9451384967001951,1.0488799218055571,0.0,True,FM,3.4618052,216
mp-631294,HfMoSe,0.5373683892013711,1.406517901388888,0.0,False,NM,8.180000000000002e-05,216
mp-1001916,HfN,-1.709787389375002,0.272690669999999,0.0,False,NM,0.0026727,216
mp-2828,HfN,-1.982478059375001,0.0,0.0,False,NM,4e-07,225
mp-1184582,HfNbRu2,-0.529471127500002,0.03850026666667,0.0,False,NM,0.0019056,225
mp-865094,HfNbTc2,-0.481426192500002,0.0,0.0,False,NM,0.00012639999999900002,225
mp-4828,HfNi2Sn,-0.490897833749998,0.04730787291071,0.0,False,NM,1.45e-05,225
mp-569516,HfNi5,-0.31740107499999903,0.027677731833332,0.0,True,FM,0.294769699999999,216
mp-961691,HfNiGe,0.023201186666663,0.79831478083333,0.0,False,NM,0.0013387,216
mp-961732,HfNiPb,0.489870420000002,0.8343279266666671,0.0,False,NM,3.7e-06,216
mp-1206814,HfNiSb,0.06980499000000101,0.692692101249998,0.0,True,FM,0.335688,216
mp-20523,HfNiSn,0.17214124166666803,0.802869639999999,0.0,False,NM,3.399999999999998e-06,216
mp-636297,HfNiSn,0.253445505000001,0.8841739033333321,0.0,False,NM,2.2300000000000003e-05,216
mp-924128,HfNiSn,-0.630728398333329,0.0,0.386899999999999,False,NM,0.0,216
mp-550893,HfO2,-3.936231537499997,0.08357950333333401,3.8043,False,NM,0.0,225
mp-864926,HfPaTc2,-0.39800769499999605,0.0,0.0,False,NM,4.4000000000000006e-05,225
mp-961715,HfPtPb,0.08038587666666701,0.9207768766666641,0.0,False,NM,0.00015649999999900002,216
mp-10367,HfSbRh,-0.278996118838141,0.484412908974359,0.0,False,NM,0.0027900000000000004,216
mp-31456,HfSbRu,-0.5357222264035121,0.10316733666666501,0.0,False,NM,0.0002524,216
mp-865165,HfScCo2,-0.390758068750002,0.0,0.0,True,FiM,1.126958,225
mp-865000,HfScIr2,-0.994417118749998,0.008809485,0.0,False,NM,0.000159,225
mp-865001,HfScOs2,-0.564750781249996,0.0,0.0,False,NM,1e-07,225
mp-865041,HfScRh2,-0.9569838462499971,0.0,0.0,False,NM,1.65e-05,225
mp-865030,HfScRu2,-0.732529233749996,0.0,0.0,False,NM,1.1e-06,225
mp-1184559,HfScTc2,-0.277731591249995,0.078739410312502,0.0,False,NM,1.0100000000000002e-05,225
mp-631455,HfSi2Br,0.45931817625000004,1.320022749374999,0.0,False,NM,0.0040837,225
mp-961686,HfSiNi,-0.32492446833335004,0.5913546658333181,0.0,False,NM,6.21e-05,216
mp-961670,HfSiPt,-0.6831251216666631,0.49640106500000003,0.0,False,NM,0.0006916,216
mp-866062,HfSiRu2,-0.87005298375,0.0,0.169499999999999,False,NM,0.0,225
mp-1224294,HfSiW4,0.291473068749989,0.618130243333332,0.0,False,NM,5.0700000000000006e-05,216
mp-11869,HfSnPd,-0.782001370000003,0.0,0.033800000000000004,False,NM,0.0,216
mp-20889,HfSnPt,-0.34612553166666205,0.494265468333331,0.0,False,NM,6.88e-05,216
mp-866221,HfSnRh2,-0.771035163749997,0.0,0.0,False,NM,7.620000000000002e-05,225
mp-866219,HfSnRu2,-0.7016819350000031,0.0,0.0,False,NM,7e-07,225
mp-865025,HfTaRe2,-0.39615333558333504,0.0,0.0,False,NM,6.37e-05,225
mp-1184573,HfTaRu2,-0.612743044333335,0.011544414722230001,0.0,False,NM,0.0014041,225
mp-865038,HfTaTc2,-0.564904271833334,0.0,0.0,False,NM,0.0002469,225
mp-1224275,HfTaV4,-0.028202971222228004,0.027264051666666,0.0,True,FM,1.1504091,216
mp-1184589,HfTc2Mo,-0.345843667500002,0.0,0.0,False,NM,1.8e-06,225
mp-865023,HfTc2Sb,-0.3720080525,0.0,0.0,False,NM,7.500000000000002e-05,225
mp-865039,HfTc2Sn,-0.270813441875006,0.036656026874997,0.0,True,FM,0.5264272,225
mp-866114,HfTc2W,-0.394319512499997,0.0,0.0,False,NM,2.8e-06,225
mp-1100419,HfTeRu,0.253267908333332,1.054267541249998,0.0,False,NM,3.5300000000000004e-05,216
mp-1184636,HfThTc2,-0.31098677285715504,0.045234461250004,0.0,False,NM,0.0001125,225
mp-1520521,HfTi(SnO3)2,-2.721022644333333,0.18921826449999302,1.8075,False,NM,0.0,225
mp-37737,HfTiF6,-3.621669591666666,0.17979416319444302,0.0,True,FM,1.9940541,225
mp-1224259,HfTiMo4,-0.07688337532406801,0.072223300370374,0.0,False,NM,0.00018899999999900003,216
mp-1224182,HfTiW4,-0.055987405833339006,0.028403853333337004,0.0,False,NM,0.0003314,216
mp-1184579,HfTiZn2,-0.18467385333333203,0.011786983437498,0.0,False,NM,1.6800000000000002e-05,225
mp-557938,HfVF6,-3.7037399425,0.0,3.2213,True,FM,3.0000005,225
mp-866117,HfZnAu2,-0.476041041249999,0.0,0.0,False,NM,9.3e-06,225
mp-866096,HfZnCo2,-0.24672110124999902,0.005411385609825001,0.0,False,NM,0.0,225
mp-866094,HfZnCu2,-0.196791697499998,0.0,0.0,False,NM,4e-07,225
mp-864798,HfZnIr2,-0.7433310700000011,0.0,0.0,False,NM,0.0,225
mp-864807,HfZnNi2,-0.430705482499998,0.0,0.0,False,NM,1.699999999999999e-06,225
mp-1184560,HfZnPd2,-0.679627562499998,0.0,0.0,False,NM,5.9e-06,225
mp-983430,HfZnPt2,-0.873607305000001,0.005494643124997,0.0,False,NM,0.0,225
mp-1184580,HfZnRh2,-0.9197817312500011,0.0,0.0,False,NM,1e-06,225
mp-1184647,HfZrCo2,-0.383389598750003,0.0,0.0,True,FiM,1.8880096,225
mp-1184648,HfZrFe2,-0.25507483750000004,0.004519357499999,0.0,False,NM,2.6800000000000004e-05,225
mp-1224188,HfZrFe4,-0.174877059999998,0.13852744833333402,0.0,True,FiM,7.2179354,216
mp-1224193,HfZrMo4,-0.155845437500005,0.001489660555545,0.0,False,NM,8.4e-06,216
mp-1184607,HfZrOs2,-0.756769933749999,0.0,0.0,False,NM,1.899999999999999e-06,225
mp-1184601,HfZrRu2,-0.8173673587500011,0.0032363525000000002,0.0,False,NM,8e-07,225
mp-974943,HfZrTc2,-0.46442279875000003,0.0,0.0,False,NM,1.5e-06,225
mp-1224085,HfZrV4,0.041028408333329006,0.041028408333332,0.0,True,FM,0.362572,216
mp-1224067,HfZrW4,-0.154151860833337,3.9947499992365465e-05,0.0,False,NM,1.5e-06,216
mp-974973,HfZrZn2,-0.27733550625000003,0.018419908125000002,0.0,False,NM,0.0,225
mp-753304,Hg,0.022511372499998003,0.022511372499998003,0.5361,False,NM,1e-07,225
mp-631530,Hg2BCl,0.9534969468055571,1.301050705972223,0.0,False,NM,0.00047149999999900006,216
mp-1184605,Hg3Cl,-0.11618115875000201,0.19444474750000001,0.0,False,NM,9.19e-05,225
mp-973778,Hg3F,-0.49470473562499206,0.162329263750002,0.0,False,NM,6.68e-05,225
mp-1184574,Hg3P,0.44932730291666406,0.44932730291666406,0.0,False,NM,0.0025382,225
mp-1184651,Hg3Sb,0.11722751375000201,0.11722751375000201,0.0,False,NM,0.0017931,225
mp-8177,HgF2,-1.5725115458333332,0.0,0.9687,False,NM,9e-05,225
mp-1184655,HgF3,-1.0220169675,0.15736669187499902,0.0,True,FM,0.9973082,225
mp-545619,HgO,-0.48715444375000305,0.14790303875000002,0.0,False,NM,0.0018234999999990002,225
mp-631323,HgOsPb2,0.863302931249997,0.863302931249997,0.0,False,NM,0.0001919,225
mp-631293,HgP2Se,0.735410851692712,0.8538712083333341,0.0,False,NM,4.6600000000000015e-05,216
mp-631301,HgPRh,0.749615553174602,1.26697793111111,0.0,False,NM,0.0029119,216
mp-977454,HgPd2Au,-0.159579113125003,0.0,0.0,False,NM,1e-07,225
mp-10764,HgS,-0.199199795000002,0.176340135,0.0,False,NM,8.83e-05,225
mp-1123,HgS,-0.375539930000003,0.0,0.0,False,NM,1e-07,216
mp-820,HgSe,-0.23550632828125,0.0014143849999960002,0.0,False,NM,2e-07,216
mp-957,HgSe,-0.085483863281247,0.151436849999999,0.0,False,NM,0.000149,225
mp-1811,HgTe,-0.040465283750002,0.14967132499999902,0.0,False,NM,0.0002341,225
mp-2730,HgTe,-0.19013660875000202,0.0,0.0,False,NM,0.0,216
mp-10765,Ho,0.049763695000002,0.049763695000002,0.0,False,NM,2.499999999999999e-06,225
mp-1197508,Ho11Cd45,-0.18692570285713903,0.0,0.0,False,NM,0.5165166,216
mp-1184622,Ho2AgAu,-0.596929542916663,0.009083005,0.0,False,NM,1.2400000000000002e-05,225
mp-1184691,Ho2AgHg,-0.397117221041666,0.004439394999998,0.0,False,NM,9.1e-06,225
mp-977358,Ho2AgIr,-0.622223012916663,0.022613972031249003,0.0,False,NM,0.0034494,225
mp-1184621,Ho2AgOs,-0.291966002916662,0.021547856875002002,0.0,False,NM,0.0004408,225
mp-1184631,Ho2AgRu,-0.36814316791666,0.0,0.0,False,NM,5.299999999999997e-06,225
mp-1184596,Ho2AlCd,-0.333801394999997,0.015370086562498001,0.0,False,NM,8.180000000000002e-05,225
mp-977406,Ho2AlOs,-0.381098876106769,0.11009461838541701,0.0,False,NM,0.0013858,225
mp-1184583,Ho2AlRu,-0.365661957499995,0.11061247475961701,0.0,False,NM,9.3e-06,225
mp-864674,Ho2AlZn,-0.373683097499997,0.000944776562498,0.0,False,NM,6.9e-06,225
mp-1184627,Ho2CdHg,-0.37287556312499603,0.0108354525,0.0,False,NM,8.5e-06,225
mp-863651,Ho2CdIn,-0.379070246666661,0.0,0.0,False,NM,0.005098099999999,225
mp-863652,Ho2CdOs,-0.21543835249999602,0.080229906875001,0.0,False,NM,0.0021868,225
mp-864696,Ho2CoOs,-0.142241467499997,0.11148400656250002,0.0,True,FiM,0.853229,225
mp-1184724,Ho2CoRu,-0.265734249999996,0.032474810468749005,0.0,True,FiM,1.0249649,225
mp-1184699,Ho2CuIr,-0.6151072924999961,0.014603250763886001,0.0,False,NM,0.002012399999999,225
mp-1184585,Ho2CuOs,-0.334136735000001,0.002278142031251,0.0,False,NM,1.8e-06,225
mp-983410,Ho2CuPd,-0.602262679999999,0.022824583125000002,0.0,False,NM,3.799999999999998e-06,225
mp-1184717,Ho2CuPt,-0.845878034999998,0.028984651249977,0.0,False,NM,9.1e-06,225
mp-867284,Ho2CuRh,-0.575543087499995,0.01294189544643,0.0,False,NM,4.999999999999999e-06,225
mp-867283,Ho2CuRu,-0.35695308999999603,0.0,0.0,False,NM,2.6e-06,225
mp-973788,Ho2CuTc,-0.137742335098682,0.09288226937499901,0.0,False,NM,8.99e-05,225
mp-1184662,Ho2GaAg,-0.45851805979166504,0.015696626249999002,0.0,False,NM,2.4700000000000004e-05,225
mp-1184603,Ho2GaOs,-0.37064170687499604,0.08937472062500201,0.0,False,NM,0.011295399999999001,225
mp-1184614,Ho2HgOs,-0.36856778250000105,0.11400222937500301,0.0,False,NM,0.00042659999999900006,225
mp-865297,Ho2InAg,-0.38647792208333104,0.0,0.0,False,NM,7.2e-06,225
mp-1184643,Ho2InHg,-0.44638141729166403,0.0033112324999990004,0.0,False,NM,0.027977,225
mp-1184630,Ho2InOs,-0.24725323166666302,0.11439666187500201,0.0,False,NM,0.005382,225
mp-1184595,Ho2IrAu,-0.850873084999998,0.030687395000001002,0.0,False,NM,2.2e-06,225
mp-1184593,Ho2IrPd,-0.930758079999997,0.0,0.0,False,NM,2e-07,225
mp-864625,Ho2IrRh,-0.9026375974999951,0.0,0.0,False,NM,0.0002808,225
mp-866111,Ho2IrRu,-0.6429201624999981,0.007962496093748,0.0,False,NM,1e-07,225
mp-867277,Ho2MgAl,-0.25087807624999603,0.0,0.0,False,NM,2.1e-06,225
mp-1184624,Ho2MgCd,-0.162882893749995,0.008576677500000001,0.0,False,NM,2.6700000000000002e-05,225
mp-1184629,Ho2MgGa,-0.315699330624997,0.040938930486111004,0.0,False,NM,0.0017863,225
mp-977392,Ho2MgIn,-0.288879742916662,0.0,0.0,False,NM,0.00016989999999900002,225
mp-1184616,Ho2MgOs,-0.148682531249996,0.057921883750002005,0.0,False,NM,0.0034081,225
mp-1184690,Ho2MgRu,-0.19891268374999702,0.071345752734373,0.0,False,NM,2.8300000000000003e-05,225
mp-1184677,Ho2MgTc,-0.010006062499997,0.09038681875,0.0,False,NM,0.0014661,225
mp-1184590,Ho2MgTl,-0.20226546708333001,0.018049720416667,0.0,False,NM,0.000275399999999,225
mp-983409,Ho2MnOs,-0.10497026789821001,0.18777115551724602,0.0,True,FiM,3.3846781,225
mp-977379,Ho2NiIr,-0.6746321899999971,0.021171952031249,0.0,False,NM,0.0005647,225
mp-1184689,Ho2NiRu,-0.414829864999996,0.0,0.0,True,FiM,0.342651,225
mp-863736,Ho2OsAu,-0.5996726805468741,0.090968214375003,0.0,False,NM,0.0047189,225
mp-863729,Ho2OsPd,-0.632210927421866,0.047420439375002,0.0,False,NM,2.1400000000000002e-05,225
mp-976939,Ho2OsPt,-0.7968948850857841,0.11872917020833201,0.0,False,NM,4.72e-05,225
mp-1184577,Ho2OsRh,-0.503677319999996,0.10364386138393,0.0,False,NM,0.011284899999999001,225
mp-866110,Ho2OsRu,-0.207012022499998,0.13678716515625,0.0,False,NM,8.900000000000001e-05,225
mp-973314,Ho2PdRh,-0.899698249999996,0.021791789999999003,0.0,False,NM,5.099999999999999e-06,225
mp-861941,Ho2PdRu,-0.6704483924999971,0.0,0.0,False,NM,2.2000000000000003e-05,225
mp-973270,Ho2RuAu,-0.6026647899999971,0.014462650703125001,0.0,False,NM,0.000954999999999,225
mp-1184663,Ho2RuPt,-0.8089441474999951,0.010155906328124001,0.0,False,NM,0.0004191,225
mp-861965,Ho2RuRh,-0.648692167499998,0.0,0.0,False,NM,2e-07,225
mp-861993,Ho2TlAg,-0.32988803374999803,0.0,0.0,False,NM,0.0028902,225
mp-861994,Ho2TlCd,-0.31191229083333205,0.0,0.0,False,NM,0.001397899999999,225
mp-1184618,Ho2TlHg,-0.503360216875002,0.0,0.0,True,FM,0.6546288,225
mp-1184644,Ho2TlIn,-0.370566932499999,0.0,0.0,False,NM,2.4500000000000003e-05,225
mp-1184628,Ho2TlZn,-0.31712106583333105,0.008266480937501,0.0,False,NM,0.002370499999999,225
mp-1184634,Ho2ZnAg,-0.323386290416662,0.01193662,0.0,False,NM,1.9900000000000003e-05,225
mp-1184617,Ho2ZnAu,-0.600204227499997,0.013419112499999001,0.0,False,NM,9.9e-06,225
mp-1184642,Ho2ZnCu,-0.28685937499999503,0.014179780000000001,0.0,False,NM,5.799999999999999e-06,225
mp-1184635,Ho2ZnGa,-0.47932505437499806,0.0025004237499980002,0.0,False,NM,0.0039788,225
mp-1184637,Ho2ZnHg,-0.391284630624998,0.017882777499998,0.0,False,NM,1.22e-05,225
mp-861600,Ho2ZnIn,-0.387168546666664,0.0,0.0,False,NM,0.0002588,225
mp-982730,Ho2ZnIr,-0.648375499999996,0.023332479583334002,0.0,False,NM,0.0123159,225
mp-861598,Ho2ZnOs,-0.300115267499996,0.023553920312502002,0.0,False,NM,0.002169899999999,225
mp-1184649,Ho2ZnPd,-0.6161086424999961,0.023104004999997003,0.0,False,NM,0.0008357999999990001,225
mp-1184692,Ho2ZnPt,-0.800407757499996,0.022378466770834,0.0,False,NM,0.000424799999999,225
mp-1184686,Ho2ZnRh,-0.612255072499995,0.019419695446429002,0.0,False,NM,5.099999999999999e-06,225
mp-867320,Ho2ZnRu,-0.37794214999999803,0.0,0.0,False,NM,1e-07,225
mp-1184673,Ho2ZnTc,-0.163458188749997,0.082952431249999,0.0,False,NM,0.0042675,225
mp-1212386,Ho3(P3Pd10)2,-0.730676966995074,0.0,0.0,False,NM,2e-07,225
mp-1212316,Ho3(SbPd2)4,-0.8775587983333321,0.0,0.0,False,NM,2e-07,225
mp-1212354,Ho3(Si3Pd10)2,-0.831926794655172,0.0,0.0,False,NM,4e-07,225
mp-1201436,Ho3Si11Pt23,-0.945341889189188,0.0,0.0,False,NM,5e-07,225
mp-570404,Ho4CdCo,-0.23357492999999402,0.0,0.0,False,NM,0.0001949,216
mp-1212283,Ho4CdIr,-0.516213347083331,0.0,0.0,False,NM,0.230762599999999,216
mp-1212299,Ho4CdNi,-0.28449960291666004,0.0,0.015600000000000001,False,NM,0.001177699999999,216
mp-1212312,Ho4CdPd,-0.43800615541666305,0.0,0.0,False,NM,4.599999999999997e-06,216
mp-1212306,Ho4CdPt,-0.595157743333324,0.0,0.0,False,NM,1.899999999999999e-06,216
mp-569478,Ho4CdRh,-0.480857542499993,0.0,0.0,False,NM,0.094854799999999,216
mp-567479,Ho4InIr,-0.5815388636111091,0.0,0.0,False,NM,0.0573792,216
mp-570015,Ho4InRh,-0.547954094861106,0.0,0.0,False,NM,0.212316099999999,216
mp-1212342,Ho4MgCo,-0.134863237083332,0.0,0.0,True,FiM,1.5890684,216
mp-1212308,Ho4MgNi,-0.18975136333333,0.0,0.036399999999999,False,NM,0.0086828,216
mp-1212304,Ho4MgRh,-0.38707401291665905,0.0,0.0,False,NM,0.0329873,216
mp-1212321,Ho4MgRu,-0.23691675749999702,0.0,0.0,False,NM,4e-07,216
mp-1224547,Ho5(Sn3Rh)6,-0.533481768103446,0.011902755517242,0.0,False,NM,0.002745499999999,216
mp-1193845,Ho6Al7Cu16,-0.37063730896551506,0.0,0.0,False,NM,0.027390499999999002,225
mp-2759,Ho6Fe23,-0.05614129,0.010444727586206001,0.0,True,FiM,54.1694408,225
mp-669648,Ho6Mn23,0.032009994792411005,0.08606522522988401,0.0,True,FiM,30.8122175,225
mp-1192847,Ho6Zn23,-0.309025495517242,0.024377816075315,0.0,False,NM,1.5e-06,225
mp-864775,HoAgHg2,-0.31993266541666904,0.0,0.0,False,NM,1.3000000000000001e-05,225
mp-861934,HoAlAg2,-0.326717519583329,0.0,0.0,False,NM,8.4e-06,225
mp-982559,HoAlAu2,-0.8148339622321281,0.025230499374998,0.0,False,NM,0.0034100000000000003,225
mp-295,HoAs,-1.798619483749998,0.0,0.0,False,NM,8e-07,225
mp-1104585,HoB12,-0.26509297961538403,0.0,0.0,False,NM,2e-07,225
mp-22866,HoBi,-1.045278150000001,0.0,0.0,False,NM,2.299999999999998e-06,225
mp-1009132,HoBiPd,-1.03782529,0.0,0.0,False,NM,2e-07,216
mp-30455,HoBiPt,-1.175998753333327,0.0,0.0,False,NM,4e-07,216
mp-864904,HoCdAg2,-0.26668044708333,0.0,0.0,False,NM,3e-07,225
mp-977415,HoCdAu2,-0.659919823749997,0.0,0.0,False,NM,1e-07,225
mp-12007,HoCdCu4,-0.23912325583333402,0.0,0.0,False,NM,2e-07,216
mp-977413,HoCdHg2,-0.340256892500003,0.0,0.0,False,NM,5e-07,225
mp-1077332,HoCdNi4,-0.35260211416666204,0.0,0.0,True,FiM,0.726229799999999,216
mp-864760,HoCdPd2,-0.733078928749994,0.0,0.0,False,NM,1e-07,225
mp-864673,HoCdPt2,-0.8219076862499951,0.018608861250001,0.0,False,NM,1.6e-06,225
mp-1184739,HoCdRh2,-0.568266246249997,0.0,0.0,False,NM,0.0012776,225
mp-1024987,HoCu4Ag,-0.237075347777771,0.0,0.0,False,NM,1.1e-06,216
mp-1024994,HoCu4Au,-0.34593563916666503,0.0,0.0,False,NM,8.730000000000001e-05,216
mp-1025134,HoCu4Pd,-0.37828091083333404,0.0,0.0,False,NM,2.75e-05,216
mp-580364,HoCu5,-0.18825247249999902,0.015987703333331,0.0,False,NM,9e-07,216
mp-972945,HoErAg2,-0.32832871958333004,0.0061213075,0.0,False,NM,5.4000000000000005e-05,225