material_id,formula,formation_energy,ehull,band_gap,is_magnetic,magnetic_ordering,total_magnetization,spacegroup
mp-864796,EuCdHg2,-0.45969671500000603,0.0,0.0,True,FM,7.1595504,225
mp-1183881,EuCr3,1.249976334999999,1.249976334999999,0.0,True,FM,18.9851198,225
mp-1518767,EuCrSnBiO6,-2.158494486000001,0.21524554552778102,0.0,True,FiM,3.8747979,216
mp-1184376,EuErTl2,-0.34265632041667005,0.0,0.0,True,FM,7.2315822,225
mp-504731,EuF2,-4.093513655,0.0,0.0,True,FM,6.9999929,225
mp-1184283,EuGaAu2,-0.5185461006250001,0.104353575000001,0.0,True,FM,6.9391608,225
mp-1517904,EuGaSnSbO6,-2.13461107575,0.21813208258333103,0.0,True,FM,6.885294,216
mp-1184442,EuGdRh2,-0.574330798749997,0.04019154520833,0.0,True,FiM,0.4296279,225
mp-1519362,EuHfCrBiO6,-2.759242703500001,0.174592803916665,0.0,True,FM,9.8614031,216
mp-1523067,EuHfCrSnO6,-2.756922555,0.227901319249998,0.0,True,FM,9.0000006,216
mp-1522041,EuHfFeBiO6,-2.575150718499999,0.20081778100000103,0.0,True,FM,11.8354553,216
mp-1517969,EuHfNbSnO6,-2.958346192,0.215218595249998,0.0,True,FiM,6.446311899999999,216
mp-1517113,EuHfVSnO6,-2.842957942,0.183855913312498,0.0,True,FM,7.9999999,216
mp-1518972,EuHfZrSnO6,-3.199007758000001,0.17528426024999702,0.0,True,FM,7.0000005,216
mp-1184270,EuHg2Bi,-0.475088751562495,0.029172100625004003,0.0,True,FM,7.0508205,225
mp-1184462,EuHg2Pb,-0.38638820250000205,0.005968410000004001,0.0,True,FM,6.959824699999999,225
mp-977581,EuHgAu2,-0.5296377318750041,0.028155195624997003,0.0,True,FM,6.9441751,225
mp-1184437,EuInAg2,-0.26344379374999904,0.026052587291665003,0.0,True,FM,7.0686803,225
mp-866021,EuInAu2,-0.586572912916667,0.014610547968744001,0.0,True,FM,6.934174,225
mp-1184408,EuInHg2,-0.41253791916667204,0.0,0.0,True,FM,6.9837781,225
mp-1077596,EuInPt4,-0.6929169552777701,0.0,0.0,True,FM,6.7123018,216
mp-1184300,EuMg3,-0.041932617500000005,0.022486643125001003,0.0,True,FM,7.2515281,225
mp-1523017,EuMgBiSbO6,-2.313295919,0.15288689185415402,0.0,True,FM,6.8612608,216
mp-1184290,EuMgCd2,-0.24441278000000102,0.0,0.0,True,FM,7.075642,225
mp-861928,EuMgHg2,-0.418228918750001,0.0,0.0,True,FM,7.1408338,225
mp-1516717,EuMgSnWO6,-2.479769923500001,0.091438793067315,0.23259999999999903,True,FM,7.0,216
mp-1184347,EuMgTl2,-0.294971869166667,0.0,0.0,True,FM,6.9559901,225
mp-1184328,EuMgZn2,-0.22666262750000102,0.0,0.0,True,FM,6.9833762,225
mp-1520158,EuMnNbBiO6,-2.4089715162931062,0.23213222946428502,0.0,True,FiM,1.966585799999999,216
mp-1516450,EuMnNbSnO6,-2.490799044793104,0.205388011750008,0.0,True,FM,10.9999998,216
mp-1519332,EuMnSnWO6,-2.230546700793104,0.133383158045454,0.15329999999999902,True,FM,12.0000001,216
mp-20340,EuN,-1.049405746874999,0.0,0.0,True,FiM,6.0000359,225
mp-1522051,EuNbCrBiO6,-2.4683205475,0.218534812178573,0.0,True,FiM,9.1743195,216
mp-1520105,EuNbCrSnO6,-2.593792475999999,0.128446181500002,0.0,True,FM,9.9471905,216
mp-1517512,EuNbFeSnO6,-2.433550817,0.15912052174999902,0.0,True,FM,11.7482244,216
mp-1516880,EuNbGaSnO6,-2.56089215675,0.136948725750002,0.1559,True,FM,7.0001037,216
mp-1519602,EuNbInSnO6,-2.412239213666666,0.2178820783,0.064899999999999,True,FM,7.0028419,216
mp-1523235,EuNbVSnO6,-2.612265739,0.151962899562501,0.0,True,FiM,4.6387249,216
mp-1518228,EuNbZnBiO6,-2.3588720485,0.23389756646429002,0.0,True,FM,6.8686054,216
mp-1516192,EuNiSnWO6,-2.062424404999999,0.174785435812497,0.21399999999999902,True,FM,9.0000007,216
mp-21394,EuO,-3.123422545000004,0.0,0.0,True,FM,6.9968772999999995,225
mp-1206506,EuO2,-2.642187138333334,0.228789992500002,0.0,True,FiM,9.9999998,225
mp-20300,EuP,-1.208571291488095,0.0,0.0,True,FiM,6.210476,225
mp-1184451,EuPbAu2,-0.5463673262500011,0.011425601249999001,0.0,True,FM,6.9910602,225
mp-1184467,EuPuRh2,0.188202004062501,0.5196238278125,0.0,True,FiM,6.363577,225
mp-20587,EuS,-2.46256579390625,0.0,0.0,True,FM,7.0002183,225
mp-21009,EuSe,-2.357297482031249,0.0,0.0,True,FM,7.0002255,225
mp-867138,EuSnAu2,-0.6073447150000021,0.0,0.0,True,FM,6.9256392,225
mp-1184434,EuSnRh2,-0.473832457499999,0.016405192916665,0.0,True,FM,6.7762341,225
mp-542583,EuTe,-1.9925802475000012,0.0,0.0,True,FM,6.9999301,225
mp-1521297,EuTiNbSnO6,-2.883962620333334,0.150336216375,0.0,True,FiM,6.3183013,216
mp-861902,EuTl2Cd,-0.32245077125000404,0.022355512159059003,0.0,True,FM,6.9450042,225
mp-1184293,EuTlAu2,-0.504338152083336,0.053454775416664005,0.0,True,FM,7.007738,225
mp-1184250,EuTlHg2,-0.42604474499999806,0.0016366566666760002,0.0,True,FM,7.1029987,225
mp-1225116,EuYAl4,-0.49351901083333405,0.014514509999997002,0.0,True,FM,7.2818099,216
mp-1184264,EuZnAu2,-0.49566628125000106,0.084502417205881,0.0,True,FM,6.9071715,225
mp-1521380,EuZnBiWO6,-2.028231260500001,0.233453236999998,0.0,True,FM,7.6390557999999995,216
mp-1517678,EuZnSnWO6,-2.161283258,0.148684273374998,0.18979999999999903,True,FM,7.0000002,216
mp-1522578,EuZrCoBiO6,-2.389749216500001,0.280427282249998,0.0,True,FM,6.8533735,216
mp-1523008,EuZrCrBiO6,-2.6687120065,0.20193460399999902,0.0,True,FM,9.8635033,216
mp-1522264,EuZrFeBiO6,-2.4831411075,0.22897303950000103,0.0,True,FM,11.8377329,216
mp-1518257,EuZrVSnO6,-2.760359143000001,0.20459672656249703,0.0,True,FM,7.9999998,216
mp-150,Fe,0.148364500000001,0.148364500000001,0.0,True,FM,2.8411307,225
mp-1212746,Fe(CN)3,0.17182677428571402,0.261468325,0.0,True,FM,2.0001662,225
mp-1188182,Fe(CoS)8,-0.703073324117647,0.001109725363321,0.0,False,NM,0.019130499999999002,225
mp-1212869,Fe(CuC6)2,1.995130853333333,1.995130853333333,0.0,True,FM,4.0001736,216
mp-672708,Fe(CuS)2,-0.330165705499999,0.17832047650000302,0.0,True,FM,13.9592199,216
mp-672709,Fe(CuS)2,-0.293514184,0.21497199800000302,0.0,True,FM,13.8036054,216
mp-723385,Fe(NF2)3,0.25584540449999904,1.464894425416671,0.0,True,FM,10.7236035,225
mp-641587,Fe21(MoC3)2,0.023532036896551003,0.035095134655174005,0.0,True,FiM,34.9848539,225
mp-641595,Fe21(WC3)2,0.033227313448276,0.049853340689656,0.0,True,FiM,30.2319117,225
mp-1224794,Fe22B6W,-0.049028609482758,0.147616240862069,0.0,True,FiM,0.6986751,216
mp-542758,Fe23B6,-0.169290196379311,0.021567803793102,0.0,True,FiM,57.7233324,225
mp-1192884,Fe23C6,0.053258100689655,0.053258100689655,0.0,True,FM,45.6359749,225
mp-30044,Fe2CoGe,-0.008624771250000001,0.14903088624999902,0.0,True,FM,5.118061799999999,225
mp-1207085,Fe2CoSi,-0.19649705249999902,0.1536508825,0.0,True,FM,4.278658,225
mp-1207117,Fe2CoSi,-0.350147934999999,0.0,0.0,True,FM,5.0944857,216
mp-1207121,Fe2SiNi,-0.284189789999999,0.06555131338709401,0.0,True,FM,4.8192629,216
mp-1193589,Fe3(Ni10B3)2,-0.20199377086206802,0.029960702931033003,0.0,True,FM,8.9350228,225
mp-1184260,Fe3Cu,0.180963685,0.180963685,0.0,True,FM,7.1578922,225
mp-20711,Fe3Ge,-0.10491906624999901,0.051767325,0.0,True,FM,7.2251321,225
mp-1007853,Fe3Ni,0.025492872500000003,0.059104549999999006,0.0,True,FM,8.513615099999999,225
mp-611817,Fe3O4,-0.939609637857142,0.703032582142856,0.0,True,FM,23.9997073,216
mp-1184364,Fe3Rh,-0.022205464999998002,0.0,0.0,True,FM,9.5787542,225
mp-2199,Fe3Si,-0.30406866999999904,0.0,0.0,True,FM,6.6896354,225
mp-1184307,Fe3Te,0.13205334333333402,0.305301496874999,0.0,True,FM,6.4057211,225
mp-1225147,Fe4Ni4PdS8,-0.662324978235294,0.07996462401750601,0.0,True,FM,0.5621565,216
mp-33300,Fe5CuO8,-1.507184307142858,0.08962712392857,0.15280000000000002,True,FM,24.9999185,216
mp-1225007,Fe5O8,-1.459665542307693,0.18176845096153701,0.0,True,FM,23.9999145,216
mp-32939,Fe7O8,-1.458767783999999,0.097942258666666,0.0,True,FiM,17.9919214,225
mp-973533,FeAg3,0.354558168750001,0.354558168750001,0.0,True,FM,3.1663876,225
mp-1205935,FeAg3F6,-1.691775917499999,0.10433117966666701,0.0,True,FM,4.9842119,225
mp-973557,FeAu3,0.15367437250000002,0.15367437250000002,0.0,True,FM,3.1096651,225
mp-1225195,FeC3N3O2,0.696786308888889,1.382746063518518,0.0,True,FM,14.0169932,216
mp-1224992,FeCo(NiS2)4,-0.659612557142856,0.097222747107142,0.0,False,NM,0.007312399999999001,216
mp-1225064,FeCo(RhS2)4,-0.710034048571427,0.060979918720236004,0.0,True,FiM,0.9780895,216
mp-22015,FeCo2(CN)6,0.43625746466666704,0.49420801966666605,0.0,True,FM,2.0655924,216
mp-22300,FeCo2Ge,-0.158624923749999,0.0,0.0,True,FM,5.9961191,225
mp-5436,FeCo2Si,-0.33230828250000005,0.006879390312499001,0.0,True,FM,5.9783222,225
mp-726328,FeCu(C3N4)2,0.9849131137499981,1.024131292187499,0.0,True,FM,8.9451718,225
mp-1225020,FeCu(RhS2)4,-0.700144240714284,0.043814843095238004,0.0,True,FM,2.4056226,216
mp-1225080,FeCu(RhSe2)4,-0.632232289910713,0.012101570000001002,0.0,True,FM,4.2501996,216
mp-22413,FeCu2(CN)6,0.541687693333332,0.583520416999999,0.0,True,FM,1.999994399999999,216
mp-21865,FeCu2Sn,0.22151781125000003,0.23317346500000002,0.0,True,FM,2.772654799999999,225
mp-1225017,FeCu6GeS8,-0.555414216562499,0.0,0.0,True,FiM,2.3117239,216
mp-865191,FeGeRu2,-0.161265363749999,0.0,0.0,True,FM,4.1730335,225
mp-1009077,FeH,-0.06725510062500001,0.0,0.0,True,FM,2.565941699999999,225
mp-1008929,FeN,0.078050967499999,0.391796395,0.0,True,FM,2.3525372,225
mp-6988,FeN,-0.3137454275,0.0,0.0,False,NM,0.0,216
mp-21498,FeNi2(CN)6,0.531329007333333,0.5836768090000011,0.6146,True,FM,1.2990083000000001,216
mp-1007854,FeNi3,0.049747635000001005,0.13950699000000102,0.0,True,FM,4.7211877,225
mp-631256,FeNiMo,0.5593453566666651,0.6041609266666641,0.0,True,FiM,0.5480872,216
mp-18905,FeO,-1.0713446425,0.410174744999999,0.0,True,FM,8.000114,225
mp-1190395,FePH12(CBr)4,-0.44500557180194705,0.0,1.2953000000000001,True,FM,5.0050026,216
mp-1205806,FePb2WO6,-1.714655161,0.10812760940624801,2.3575,True,FiM,4.0005472,225
mp-631895,FePbW2,0.8515988900000011,0.8603247621875021,0.0,True,FM,1.9511508,216
mp-1212788,FePt(CN)6,0.148129514285714,0.194551523809524,2.2287,False,NM,0.0009837,225
mp-1977567,FeSbPt,-0.016417899999999,0.364374655416667,0.0,True,FM,2.4624185,216
mp-3464,FeSiRu2,-0.36626035249999905,0.0,0.0,True,FM,4.0882311,225
mp-862790,FeSiTc2,-0.28573521749999903,0.0,0.0,True,FM,2.645857099999999,225
mp-961653,FeSiW,-0.280795349999999,0.036524227500002004,0.062899999999999,False,NM,0.0002524,216
mp-1197322,FeSnO6,-0.6724344156250001,0.6513373840624991,0.0,True,FM,6.3287174,225
mp-1184221,FeSnRh2,-0.258571511249998,0.042452207500000005,0.0,True,FM,3.5659837,225
mp-636599,FeSnRu2,-0.016346891249998,0.058733146071428,0.0,True,FM,4.0929659,225
mp-631425,FeTc2Cl,0.636939425,1.067297726249998,0.0,True,FM,1.0263801,225
mp-1184276,FeTc2Ge,-0.07506946375000101,0.0,0.0,True,FM,2.5858824,225
mp-2885,Ga(MoS2)4,-1.07180620826923,0.047331850760285,0.0,True,FM,0.9999958,216
mp-5584,Ga(MoSe2)4,-0.870652148173076,0.06332657478021801,0.0,True,FM,0.999174,216
mp-1199250,Ga(NF2)3,0.165251805999999,1.4858578300000032,0.0,True,FM,23.9523929,225
mp-1194289,Ga2(Co7B2)3,-0.144936207758623,0.005157408793103,0.0,True,FM,21.132944,225
mp-1193255,Ga2(Ni7B2)3,-0.303814563793102,0.0,0.0,True,FM,0.800407499999999,225
mp-2776,Ga2Au,-0.23312863000000003,0.0,0.0,False,NM,6e-07,225
mp-631553,Ga2BSb,0.883107588333331,0.9977435483333321,0.0,False,NM,0.014880899999999002,225
mp-1184229,Ga2CoIr,-0.35478256541666303,0.035522045,0.0,True,FM,0.234615,225
mp-865779,Ga2CoRu,-0.27669656125000003,0.055989149999996005,0.0,False,NM,2e-07,225
mp-865743,Ga2IrRh,-0.544217351250001,0.0,0.0,False,NM,0.0,225
mp-866041,Ga2IrRu,-0.47565982375000004,0.0,0.0,False,NM,0.0,225
mp-1184299,Ga2NiRu,-0.34501173246153805,0.031671115913461,0.0,False,NM,0.00020319999999900002,225
mp-22095,Ga2Pt,-0.581049438333334,0.0,0.0,False,NM,0.0,225
mp-1184318,Ga2RuPt,-0.440820771249999,0.029191243750001,0.0,False,NM,0.0008981,225
mp-867292,Ga2RuRh,-0.535302353749998,0.0,0.0,False,NM,4.4e-06,225
mp-631305,Ga2WSe,0.71038866648438,1.055398020625002,0.0,False,NM,0.0088494,225
mp-977324,Ga3(Ni10B3)2,-0.33055922577588104,0.0,0.0,False,NM,1e-07,225
mp-1184226,Ga3Ag,0.065323063229168,0.07294466239583301,0.0,False,NM,0.0002847,225
mp-983412,Ga3Au,-0.029265909374998,0.145580563125001,0.0,False,NM,0.0001836,225
mp-1184344,Ga3Pb,0.092950594375,0.092950594375,0.0,False,NM,0.0010734,225
mp-1184218,Ga3Pt,-0.164990773125,0.28595928515625,0.0,False,NM,0.0012224,225
mp-1183982,Ga3Si,0.210379694374999,0.210379694374999,0.0,False,NM,0.0026172,225
mp-1183986,Ga3Sn,0.226533535000001,0.226533535000001,0.0,False,NM,0.0,225
mp-1207208,GaAg3F6,-1.7344413669999992,0.08275548400001201,0.0,False,NM,0.000133,225
mp-2534,GaAs,-0.446277056249999,0.0,0.18610000000000002,False,NM,0.0,216
mp-631565,GaAs2W,0.6295781758333231,0.891370816249988,0.0,False,NM,0.0298549,216
mp-1183979,GaAs3,0.282916846875,0.5060553750000001,0.0,False,NM,0.0018116,225
mp-1018126,GaBi,-0.006901732500004001,0.0,0.0,False,NM,0.0,216
mp-1007821,GaCo2Ni,-0.10491083710622601,0.09440847634615301,0.0,True,FM,2.5604715000000002,225
mp-1184005,GaCuNi2,-0.24082098499999902,0.008674284375,0.0,False,NM,2.13e-05,225
mp-1184030,GaCuPd2,-0.479113784999999,0.000919858750002,0.0,False,NM,1e-06,225
mp-862791,GaCuPt2,-0.42677129687499904,0.048846357499999,0.0,False,NM,0.0001401,225
mp-862485,GaCuRh2,-0.37303708687499804,0.0,0.0,False,NM,0.0004481,225
mp-1224895,GaFe2Co,-0.14808343437500002,0.03382903375,0.0,True,FM,4.9303181,216
mp-636212,GaFe2Co,-0.043305436875000006,0.138607031249999,0.0,True,FM,5.9165773,225
mp-622990,GaFe2Ni,-0.018714536874999,0.187673184038461,0.0,True,FM,4.4695514,225
mp-672661,GaFe3,-0.09944956687499801,0.035868055,0.0,True,FM,6.0369008,225
mp-1224930,GaFe7N2,-0.13726160474999802,0.057035120000003006,0.0,True,FM,10.5843144,225
mp-30551,GaFeCo2,-0.22850731437500002,0.0,0.0,True,FM,5.0977669,225
mp-865247,GaFeIr2,-0.227981726874999,0.0,0.0,True,FM,4.5438461,225
mp-1018074,GaFeNi2,-0.20946273687499803,0.052179749166668,0.0,True,FM,3.1076826,225
mp-865170,GaFeRh2,-0.429486869374999,0.0,0.0,True,FM,4.4276779,225
mp-1184055,GaFeRu2,-0.158175891875,0.0,0.0,True,FM,3.2372357,225
mp-1224769,GaGe,0.162654838749999,0.162654838749999,0.0,False,NM,0.004242099999999,216
mp-1212670,GaGe(MoS2)4,-0.598036099464285,0.45070105258928206,0.0,False,NM,0.0062716,216
mp-1183985,GaGe3,0.259439094374998,0.259439094374998,0.0,False,NM,0.003253899999999,225
mp-865895,GaGeRu2,-0.313812595000001,0.0,0.0,False,NM,4.7e-06,225
mp-1183987,GaHg3,0.069223859375,0.069223859375,0.0,False,NM,0.0272248,225
mp-1224843,GaMo4(SeS)4,-1.00324953360577,0.028083674010987002,0.0,True,FM,0.9989334,216
mp-15862,GaMo4CS8,-0.5523500594642851,0.48684956677740804,0.0,False,NM,0.032042999999999,216
mp-2853,GaN,-0.191002804374999,0.47904660250000003,0.4207,False,NM,0.0,225
mp-830,GaN,-0.6633181693749991,0.006731237500000001,1.5701,False,NM,0.0,216
mp-866037,GaNiRh2,-0.341384039375,0.0,0.0,True,FM,2.0008608,225
mp-2490,GaP,-0.508916133988096,0.0,1.603899999999999,False,NM,0.0,216
mp-1184254,GaPd3,-0.43569944749999906,0.063439489,0.0,False,NM,0.0,225
mp-631572,GaReAs,0.9276726375000001,1.2251906750000041,0.0,False,NM,0.0060548,216
mp-1156,GaSb,-0.22927192000000202,0.0,0.0,False,NM,0.0,216
mp-1184224,GaSb3,0.074945590000002,0.189581550000003,0.0,False,NM,0.0027797,225
mp-16338,GaSi(MoS2)4,-0.708305824107142,0.37601251535714303,0.0,False,NM,0.0574221,216
mp-983359,GaSi3,0.5194540106249991,0.5194540106249991,0.0,False,NM,0.0007126999999990001,225
mp-865615,GaSiRu2,-0.514142448749999,0.0,0.0,False,NM,4.1e-06,225
mp-1184236,GaSn3,0.078918769374997,0.078918769374997,0.0,False,NM,0.0034202,225
mp-865746,GaTc2W,-0.174587085000002,0.0,0.0,False,NM,7.450000000000002e-05,225
mp-14432,GaTe4(MoSe)4,-0.7299396341185881,0.015553961895606,0.0,True,FM,1.0013259,216
mp-614502,Gd,0.07462653000000301,0.07462653000000301,0.0,True,FM,8.0625063,225
mp-1184381,Gd2AgAu,-0.5509218812499981,0.0,0.0,True,FM,14.7188982,225
mp-1184352,Gd2AgHg,-0.38752221812499904,0.004464794999996,0.0,True,FM,15.2579527,225
mp-1184371,Gd2AgIr,-0.566996866249994,0.0,0.0,True,FiM,14.4858761,225
mp-1006068,Gd2AgRh,-0.505994883749998,0.013761679999994001,0.0,True,FiM,14.6533784,225
mp-1184415,Gd2AgRu,-0.26861557750000004,0.0,0.0,True,FiM,14.4257652,225
mp-1184403,Gd2AlCd,-0.37915017249999705,0.014697412999996001,0.0,True,FM,14.9854178,225
mp-1184427,Gd2AlZn,-0.372386588749999,0.015557190500000002,0.0,True,FM,14.9494776,225
mp-1184362,Gd2CdHg,-0.44836291187500105,0.0,0.0,True,FM,15.5652597,225
mp-1184514,Gd2CdIn,-0.49966898749999406,0.0,0.0,True,FM,15.1152576,225
mp-1184435,Gd2CuAu,-0.513057892499999,0.0069881300000010005,0.0,True,FM,14.3713047,225
mp-1184428,Gd2CuOs,-0.179011519999995,0.0023829262500000004,0.0,True,FiM,14.4471245,225
mp-1184422,Gd2CuRu,-0.23625457374999903,0.0,0.0,True,FiM,14.3489004,225
mp-1184305,Gd2GaAg,-0.455731104791665,0.011580603750001,0.0,True,FM,14.7895553,225
mp-1184476,Gd2InHg,-0.517009311875,0.034504427499996,0.0,True,FM,15.0094654,225
mp-1184354,Gd2IrAu,-0.819186280000003,0.0,0.0,True,FM,14.5143864,225
mp-866029,Gd2IrPd,-0.849852882500002,0.0,0.0,True,FiM,14.3507316,225
mp-865436,Gd2IrRh,-0.8129959575000001,0.0,0.0,True,FiM,13.8750111,225
mp-1184393,Gd2IrRu,-0.5345725962500011,0.0,0.0,True,FiM,13.9722656,225
mp-1184333,Gd2MgAl,-0.264912353750002,0.0,0.0,True,FM,15.2573816,225
mp-1184409,Gd2MgCd,-0.202455828749999,0.006368437500000001,0.0,True,FM,15.7583274,225
mp-864748,Gd2MgIn,-0.330461057916666,0.0,0.0,True,FM,15.2900919,225
mp-1184399,Gd2MgRu,-0.156911586249999,0.05382973048912901,0.0,True,FiM,14.5657074,225
mp-865316,Gd2MgTl,-0.265233012083335,0.0,0.0,True,FM,15.3268601,225
mp-636619,Gd2MnGa6,-0.5288708881034361,0.0,0.0,True,FiM,2.6088164,225
mp-1232425,Gd2NiIr,-0.590557852500001,0.0,0.0,True,FiM,14.1424628,225
mp-1184370,Gd2NiRu,-0.327995215000001,0.0,0.0,True,FiM,13.8100217,225
mp-1185587,Gd2PdRh,1.775880891250004,2.5988902737500013,0.0,True,FM,2.839089399999999,225
mp-866052,Gd2PdRu,-0.53999386625,0.0,0.0,True,FiM,14.1356284,225
mp-1184387,Gd2RuRh,-0.519951806249999,0.0,0.0,True,FiM,14.0369542,225
mp-1184366,Gd2TlAg,-0.364098448749999,0.0,0.0,True,FM,15.0395492,225
mp-866608,Gd2TlCd,-0.261520202499994,0.13845065249999702,0.0,True,FM,14.8404279,225
mp-1184448,Gd2TlHg,-0.516669036875001,0.0,0.0,True,FM,15.1069228,225
mp-1184390,Gd2TlZn,-0.400997908749992,0.0,0.0,True,FM,15.1445345,225
mp-1184380,Gd2ZnAg,-0.276772129999997,0.021224254999999,0.0,True,FM,14.5591728,225
mp-1184388,Gd2ZnGa,-0.49909897937499803,0.0,0.0,True,FM,15.0726735,225
mp-1184500,Gd2ZnHg,-0.42165540312500105,0.0188705475,0.0,True,FM,15.0003366,225
mp-1184470,Gd2ZnIn,-0.46584832125000003,0.005926831874997001,0.0,True,FM,15.0959475,225
mp-1184416,Gd2ZnRh,-0.5330636362499981,0.035231865,0.0,True,FiM,14.3979104,225
mp-866217,Gd2ZnRu,-0.329497107499996,0.0,0.0,True,FiM,14.3627055,225
mp-1213489,Gd3(P3Pd10)2,-0.193253794408865,0.48906316068965305,0.0,True,FiM,1.9616034,225
mp-1112337,Cs2ScTlF6,-3.352392971764368,0.0,5.2805,False,NM,0.0006397999999990001,225
mp-1112484,Cs2ScTlI6,-1.481135688764369,0.0,2.4146,False,NM,0.0005028,225
mp-1011695,Cs2Se,-1.265029576354166,0.0,1.7952,False,NM,0.0,225
mp-27830,Cs2SeCl6,-1.2756812115624991,0.0,2.7509,False,NM,0.0,225
mp-989544,Cs2SeClF6,-2.190747526165409,0.0,0.0,True,FM,0.909806799999999,225
mp-4047,Cs2SiF6,-3.389468809444444,0.0,6.8901,False,NM,0.0,225
mp-1112920,Cs2SmAuCl6,-2.064388163431034,0.092213857749999,2.23,False,NM,0.0003611,225
mp-1111449,Cs2SmCuCl6,-2.026102832499998,0.026521445250002003,2.5700000000000003,False,NM,0.0,225
mp-641923,Cs2SnBr6,-1.609659967145594,0.0,1.438899999999999,False,NM,0.0,225
mp-608555,Cs2SnCl6,-1.7082079072222212,0.0,2.59,False,NM,0.0,225
mp-27636,Cs2SnI6,-1.163201927145591,0.0,0.293799999999999,False,NM,1e-07,225
mp-1112334,Cs2TaAgBr6,-1.356169582831035,0.14391227813333002,0.0,True,FM,1.9988339,225
mp-1113222,Cs2TaAgCl6,-1.6582391008310342,0.200136284833336,0.0,True,FM,1.999492399999999,225
mp-1114070,Cs2TaAgF6,-2.872888780253322,0.10242453153333,0.28240000000000004,False,NM,0.000113399999999,225
mp-1112935,Cs2TaAgI6,-0.943102258831034,0.15107131415625202,0.0,True,FM,2.0034232,225
mp-1113212,Cs2TaAuF6,-2.931536520543312,0.045889704040003004,1.1619,False,NM,9.67e-05,225
mp-569885,Cs2TaCl6,-2.064861539627081,0.0,0.0,True,FM,0.999999899999999,225
mp-1112910,Cs2TaCuBr6,-1.293198004664368,0.206883856299997,0.0,True,FM,1.9991799000000001,225
mp-1113336,Cs2TaCuCl6,-1.598200449664368,0.260174936000002,0.0,True,FM,1.9995740999999991,225