material_id,formula,formation_energy,ehull,band_gap,is_magnetic_x,magnetic_ordering,total_magnetization_x,spacegroup,heusler_type,is_magnetic_y,total_magnetization_y
mp-865607,LuGaPd2,-0.8917977741666651,0.017691638541663,0.0,False,NM,1.49e-05,225,full,False,1.49e-05
mp-865609,LuGaRh2,-0.9137339885416672,0.0,0.0,False,NM,9e-07,225,full,False,9e-07
mp-1185511,LuHfCo2,-0.321463706666667,0.071059110333331,0.0,True,FiM,1.2870332,225,full,True,1.2870332
mp-1185493,LuHfIr2,-0.939550111666665,0.0402884275,0.0,False,NM,0.0005669,225,full,False,0.0005669
mp-1185496,LuHfRh2,-0.9870697391666632,0.017697210721159,0.0,False,NM,3.4300000000000014e-05,225,full,False,3.4300000000000014e-05
mp-865846,LuHfRu2,-0.667736076666667,0.0,0.0,False,NM,4.8e-06,225,full,False,4.8e-06
mp-865848,LuInAg2,-0.374864316666663,0.0,0.0,False,NM,6.2e-06,225,full,False,6.2e-06
mp-30393,LuInAu2,-0.760536086666668,0.013883352777774,0.0,False,NM,5.8800000000000006e-05,225,full,False,5.8800000000000006e-05
mp-4972,LuInCu2,-0.366030491666666,0.0,0.0,False,NM,1.4e-05,225,full,False,1.4e-05
mp-865945,LuInNi2,-0.411526305833332,0.042424083611114,0.0,False,NM,0.0002605,225,full,False,0.0002605
mp-12129,LuInPd2,-0.8580285458333321,0.0,0.0,False,NM,8e-07,225,full,False,8e-07
mp-1185489,LuInPt2,-1.066440651666667,0.033175899423078,0.0,False,NM,2e-07,225,full,False,2e-07
mp-865884,LuInRh2,-0.920134789166663,0.0,0.0,False,NM,4.8e-06,225,full,False,4.8e-06
mp-1185515,LuMg2Sc,-0.018285032916666,0.0102059375,0.0,False,NM,4.1500000000000006e-05,225,full,False,4.1500000000000006e-05
mp-1185500,LuMgAg2,-0.292354603749998,0.0,0.0,False,NM,6.099999999999997e-06,225,full,False,6.099999999999997e-06
mp-865861,LuMgAu2,-0.7843748879166651,0.0,0.0,False,NM,1.5700000000000002e-05,225,full,False,1.5700000000000002e-05
mp-865223,LuMgCd2,-0.233183900416666,0.0,0.0,False,NM,5e-07,225,full,False,5e-07
mp-865226,LuMgHg2,-0.409014109166671,0.0,0.0,False,NM,3e-07,225,full,False,3e-07
mp-865253,LuMgPd2,-0.857993077916668,0.0,0.0,False,NM,3.2e-06,225,full,False,3.2e-06
mp-865271,LuMgRh2,-0.795624880416661,0.0,0.0,False,NM,1.3600000000000002e-05,225,full,False,1.3600000000000002e-05
mp-1185501,LuMgTl2,-0.141157832083337,0.042025029166663,0.0,False,NM,0.006684799999999,225,full,False,0.006684799999999
mp-865256,LuMgZn2,-0.308448190416666,0.0,0.0,False,NM,4.3700000000000005e-05,225,full,False,4.3700000000000005e-05
mp-1185505,LuMnRh2,-0.5975676186494231,0.006113785000001,0.0,True,FM,4.5408373,225,full,True,4.5408373
mp-865255,LuNbRu2,-0.432735481666664,0.0,0.0,False,NM,8.7e-06,225,full,False,8.7e-06
mp-11492,LuNi2Sn,-0.516252012916664,0.017926692656254,0.0,False,NM,0.000107299999999,225,full,False,0.000107299999999
mp-30457,LuNiBi,-0.71176266055555,0.0,0.012699999999999,False,NM,0.0,216,half,False,0.0
mp-20185,LuNiSb,-0.9881912088888832,0.0,0.214599999999999,False,NM,0.0,216,half,False,0.0
mp-1185518,LuNpRu2,-0.295213951354167,0.006389770312498,0.0,True,FiM,2.8747619,225,full,True,2.8747618999999998
mp-865608,LuPaOs2,-0.291366774166668,0.000330253125,0.0,False,NM,3.2200000000000003e-05,225,full,False,3.2200000000000003e-05
mp-1185527,LuPaRe2,0.000471669583333,0.239662658125002,0.0,False,NM,4.2e-06,225,full,False,4.2e-06
mp-865639,LuPaRu2,-0.484444201666665,0.0,0.0,True,FM,0.121492499999999,225,full,True,0.121492499999999
mp-865801,LuPaTc2,-0.283012331666668,0.0,0.0,False,NM,5.47e-05,225,full,False,5.47e-05
mp-1206796,LuPd2Pb,-0.710763979166666,0.021424805312497,0.0,False,NM,0.003273399999999,225,full,False,0.003273399999999
mp-865969,LuReTc2,-0.040271232291667,0.183369588437498,0.0,False,NM,0.0001292,225,full,False,0.0001292
mp-865443,LuRh2Pb,-0.5972035491666651,0.0,0.0,True,FM,0.8472215,225,full,True,0.8472215
mp-865447,LuSbPd2,-0.895846756666667,0.010651846999987,0.0,False,NM,6e-07,225,full,False,6e-07
mp-10194,LuSbPt,-1.3663540288888871,0.0,0.0,False,NM,1.6e-06,216,half,False,1.6e-06
mp-866137,LuSbRh2,-0.8223071991666651,0.049054073958313,0.0,False,NM,0.000112899999999,225,full,False,0.000112899999999
mp-866138,LuSbRu2,-0.520204601666665,0.034764822500001,0.0,False,NM,1.48e-05,225,full,False,1.48e-05
mp-1185510,LuScCo2,-0.291537130416666,0.012742544479165,0.0,True,FiM,0.7053296,225,full,True,0.7053296
mp-1185508,LuScCu2,-0.280251242916666,0.0,0.0,False,NM,0.0,225,full,False,0.0
mp-1185506,LuScHg2,-0.513785954166671,0.001179887499993,0.0,False,NM,0.000446,225,full,False,0.000446
mp-1185491,LuScIr2,-0.989625687916666,0.04545219,0.0,False,NM,1.15e-05,225,full,False,1.15e-05
mp-974065,LuScPd2,-0.948753260416662,0.0112644925,0.0,False,NM,2.1e-06,225,full,False,2.1e-06
mp-973432,LuScRh2,-1.004918235416664,0.025211210000001,0.0,False,NM,7.2e-06,225,full,False,7.2e-06
mp-973433,LuScRu2,-0.499663422916666,0.006104602500001,0.0,False,NM,9.24e-05,225,full,False,9.24e-05
mp-973430,LuScZn2,-0.363861962916666,0.007347619999999,0.0,False,NM,0.0048413,225,full,False,0.0048413
mp-5177,LuSnAu,-0.931271765555555,0.0,0.0,False,NM,6.099999999999997e-06,216,half,False,6.099999999999997e-06
mp-5181,LuSnPd2,-0.9190374991666632,0.0,0.0,False,NM,5.4e-06,225,full,False,5.4e-06
mp-865378,LuSnRh2,-0.8560770779166641,0.0,0.0,True,FM,0.736987899999999,225,full,True,0.736987899999999
mp-865379,LuSnRu2,-0.440001242916666,0.0,0.0,False,NM,1.899999999999999e-06,225,full,False,1.899999999999999e-06
mp-866127,LuTaOs2,-0.375750661000019,0.0,0.0,False,NM,0.0,225,full,False,0.0
mp-866125,LuTaRu2,-0.509273698500001,0.0,0.0,False,NM,8.560000000000001e-05,225,full,False,8.560000000000001e-05
mp-866124,LuTc2W,-0.111866545416674,0.119693886249997,0.0,False,NM,0.0091193,225,full,False,0.0091193
mp-865410,LuThRu2,-0.505350231666665,0.0,0.0,False,NM,6.570000000000001e-05,225,full,False,6.570000000000001e-05
mp-865416,LuThTc2,-0.160377945930065,0.091493858749991,0.0,False,NM,0.001112699999999,225,full,False,0.001112699999999
mp-865438,LuTlRh2,-0.5930293950000011,0.0,0.0,False,NM,7.699999999999999e-06,225,full,False,7.699999999999999e-06
mp-865488,LuUTc2,-0.130547316041685,0.142386901249999,0.0,False,NM,0.1035487,225,full,False,0.1035487
mp-865563,LuZnPd2,-0.80103935666666,0.0,0.0,False,NM,5.2e-06,225,full,False,5.2e-06
mp-865566,LuZnRh2,-0.800557090416663,0.0,0.0,False,NM,1.9200000000000003e-05,225,full,False,1.9200000000000003e-05
mp-865461,LuZrCo2,-0.281861881666666,0.0,0.0,True,FiM,1.3298533,225,full,True,1.3298533
mp-865434,LuZrRu2,-0.596900841666665,0.0,0.0,False,NM,5e-07,225,full,False,5e-07
mp-864978,Mg2AgAu,-0.425984957916666,0.0,0.0,False,NM,8e-07,225,full,False,8e-07
mp-1185750,Mg2AgHg,-0.215083121041667,0.0,0.0,False,NM,1e-07,225,full,False,1e-07
mp-864976,Mg2AgIr,-0.283800000416665,0.011970491644738,0.0,False,NM,1e-07,225,full,False,1e-07
mp-1185749,Mg2AgPd,-0.472075045416665,0.008508659999999,0.0,False,NM,0.0001794,225,full,False,0.0001794
mp-864932,Mg2AgPt,-0.5584403854166641,0.0,0.0,False,NM,5e-07,225,full,False,5e-07
mp-864933,Mg2AgRh,-0.362776732916665,0.0,0.0,False,NM,1.1e-06,225,full,False,1.1e-06
mp-1185662,Mg2CdAg,-0.137157450416665,0.025367825416667,0.0,False,NM,4.13e-05,225,full,False,4.13e-05
mp-1185755,Mg2CdHg,-0.123374163125001,0.023827070555555,0.0,False,NM,0.000624099999999,225,full,False,0.000624099999999
mp-1185752,Mg2CdIr,-0.216777634999999,0.034210929364035,0.0,False,NM,0.0001638,225,full,False,0.0001638
mp-1185761,Mg2CdPd,-0.384750454999998,0.025942002916667,0.0,False,NM,2.59e-05,225,full,False,2.59e-05
mp-1185762,Mg2CdRh,-0.280065619999999,0.02131258,0.0,False,NM,3.9500000000000005e-05,225,full,False,3.9500000000000005e-05
mp-1185763,Mg2GaPd,-0.415764391874999,0.0142237425,0.0,False,NM,4e-07,225,full,False,4e-07
mp-1185760,Mg2HgAu,-0.393065230625001,0.001544009999998,0.0,False,NM,3e-06,225,full,False,3e-06
mp-1185765,Mg2IrAu,-0.426804469999999,0.049751644144736,0.0,False,NM,0.00064,225,full,False,0.00064
mp-1185767,Mg2IrPd,-0.50694018,0.036997494144737,0.0,False,NM,0.0001574,225,full,False,0.0001574
mp-1185768,Mg2IrPt,-0.568500835,0.0,0.0,False,NM,6e-07,225,full,False,6e-07
mp-1185766,Mg2IrRh,-0.354938152499999,0.050510196644736,0.0,False,NM,0.001013,225,full,False,0.001013
mp-631386,Mg2NbFe,0.576391344999999,0.63049270403846,0.0,True,FM,2.4419027,225,full,True,2.4419027
mp-1185769,Mg2NiIr,-0.247352247499999,0.047353665660635,0.0,False,NM,0.0018988,225,full,False,0.0018988
mp-1185770,Mg2NiRh,-0.331893409999999,0.01017036515625,0.0,False,NM,0.0,225,full,False,0.0
mp-631637,Mg2PbW,0.7867072650000011,0.813987692499998,0.0,True,FM,0.2773143,216,full,True,0.2773143
mp-864972,Mg2PdAu,-0.658968265000001,0.000403262499998,0.0,False,NM,0.0,225,full,False,0.0
mp-864975,Mg2PdPt,-0.7936226175000011,0.0,0.0,False,NM,4.8e-06,225,full,False,4.8e-06
mp-864969,Mg2PdRh,-0.625471557499999,0.0,0.0,False,NM,1.2e-06,225,full,False,1.2e-06
mp-864940,Mg2PtRh,-0.688206122499999,0.0,0.0,False,NM,1.6e-06,225,full,False,1.6e-06
mp-864965,Mg2RhAu,-0.5368869725000001,0.0,0.0,False,NM,4.9800000000000025e-05,225,full,False,4.9800000000000025e-05
mp-978256,Mg2TlPb,-0.032516090833334,0.0,0.0,False,NM,9.6e-06,225,full,False,9.6e-06
mp-978265,Mg2ZnPd,-0.412960854999998,0.009695222395834,0.0,False,NM,5e-07,225,full,False,5e-07
mp-978266,Mg2ZnPt,-0.5081330124999991,0.01937294892857,0.0,False,NM,9e-06,225,full,False,9e-06
mp-978267,Mg2ZnRh,-0.320660039999999,0.014426390789473,0.0,False,NM,0.0001147,225,full,False,0.0001147
mp-3477,MgAgAs,-0.193409814722221,0.14351466486111,0.0,False,NM,4e-06,216,half,False,4e-06
mp-1185824,MgAgAu2,-0.336101516666667,0.012053674333331,0.0,False,NM,1e-07,225,full,False,1e-07
mp-1008903,MgAgSb,-0.278527655555552,0.0,0.0,False,NM,4e-07,216,half,False,4e-07
mp-865919,MgAlAg2,-0.167760192083331,0.0,0.0,False,NM,1e-07,225,full,False,1e-07
mp-1185826,MgAlAu2,-0.47838773125,0.015376279999998,0.0,False,NM,2e-07,225,full,False,2e-07
mp-865921,MgAlIr2,-0.6935179262500011,0.0,0.0,False,NM,7e-07,225,full,False,7e-07
mp-1185843,MgAlNi2,-0.411823771249999,0.010864636666667,0.0,False,NM,1.3e-06,225,full,False,1.3e-06
mp-865152,MgAlPd2,-0.826217871249998,0.0,0.0,False,NM,1.8e-06,225,full,False,1.8e-06
mp-865155,MgAlRh2,-0.834185793749998,0.0,0.0,False,NM,0.0,225,full,False,0.0
mp-631564,MgBe2B,0.694095131458333,0.739204621874999,0.0,False,NM,0.0016921,216,full,False,0.0016921
mp-1221963,MgBeB,0.427815913611111,0.487961900833334,0.0,False,NM,0.0045311,216,half,False,0.0045311
mp-30727,MgCdAg2,-0.146492412083332,0.0,0.0,False,NM,4.599999999999997e-06,225,full,False,4.599999999999997e-06
mp-865150,MgCdAu2,-0.368390623749996,0.016270255000002,0.0,False,NM,1.5e-06,225,full,False,1.5e-06
mp-1185850,MgCdPd2,-0.5580735787499981,0.001065562500001,0.0,False,NM,4.1e-06,225,full,False,4.1e-06
mp-1185849,MgCo2Si,-0.280699186249999,0.031928345625,0.0,False,NM,0.009652299999999,225,full,False,0.009652299999999
mp-2210713,MgCrO2,-1.596520068749999,0.949783919999996,0.0,True,FM,4.0004627,225,full,True,4.0004627
mp-30449,MgCuBi,-0.098952578333333,0.016966318333331,0.0,False,NM,6.2e-06,216,half,False,6.2e-06
mp-1207094,MgCuPb,-0.009511431666665,0.065871513333333,0.0,False,NM,0.000386,216,half,False,0.000386
mp-2210612,MgCuS,-0.256902210833332,0.8510873733333321,0.0,False,NM,7.400000000000002e-05,216,half,False,7.400000000000002e-05
mp-3522,MgCuSb,-0.325658744999998,0.0,0.0,False,NM,2e-07,216,half,False,2e-07
mp-11361,MgCuSn,-0.167420896666666,0.0,0.0,False,NM,1.2e-06,216,half,False,1.2e-06
mp-636240,MgCuSn,0.09506045,0.262481346666666,0.0,False,NM,8.3e-06,216,half,False,1.2e-06
mp-865187,MgFeRh2,-0.29181303875,0.0,0.0,True,FM,4.3989436,225,full,True,4.3989436
mp-865183,MgGaAg2,-0.141955728958331,0.0,0.0,False,NM,0.0,225,full,False,0.0
mp-865186,MgGaIr2,-0.457590178124999,0.0,0.0,False,NM,1e-07,225,full,False,1e-07
mp-865092,MgGaNi2,-0.328431883124999,0.0,0.0,False,NM,1.16e-05,225,full,False,1.16e-05
mp-865123,MgGaPd2,-0.710474510624998,0.0,0.0,False,NM,4e-07,225,full,False,4e-07
mp-1185861,MgGaPt2,-0.7027672531249981,0.0,0.0,False,NM,2.899999999999999e-06,225,full,False,2.899999999999999e-06
mp-865125,MgGaRh2,-0.683136453124998,0.0,0.0,False,NM,0.0,225,full,False,0.0
mp-865160,MgGeIr2,-0.332993795000001,0.019706491986839,0.0,False,NM,2.5200000000000003e-05,225,full,False,2.5200000000000003e-05
mp-1185870,MgGePd2,-0.576235024999998,0.017724357500001,0.0,False,NM,1e-07,225,full,False,1e-07
mp-865162,MgGeRh2,-0.6094956424999991,0.0,0.0,False,NM,0.0,225,full,False,0.0
mp-1185884,MgHgPd2,-0.466052556874999,0.0,0.0,False,NM,8e-07,225,full,False,8e-07
mp-973088,MgInAg2,-0.138226363749998,0.0,0.0,False,NM,1e-07,225,full,False,1e-07
mp-865044,MgInIr2,-0.248749257916665,0.025935457187499,0.0,False,NM,5.7900000000000005e-05,225,full,False,5.7900000000000005e-05
mp-19929,MgInNi2,-0.186938640416665,0.0,0.0,False,NM,9.48e-05,225,full,False,9.48e-05
mp-865043,MgInPd2,-0.662940087916664,0.0,0.0,False,NM,1.5e-06,225,full,False,1.5e-06
mp-977438,MgInRh2,-0.527043010416665,0.0,0.0,False,NM,3e-06,225,full,False,3e-06
mp-1185894,MgMnIr2,-0.244600118232758,0.028513767187501,0.0,True,FM,3.028486,225,full,True,3.028486
mp-1185892,MgMnPd2,-0.468040895732759,0.0,0.0,True,FM,4.5578798,225,full,True,4.5578798
mp-976406,MgMnPt2,-0.5800832007327561,0.0,0.0,True,FM,4.5816276,225,full,True,4.5816276
mp-977463,MgMnRh2,-0.316020983232757,0.0,0.0,True,FM,4.1416254,225,full,True,4.1416254
mp-1185902,MgNbOs2,-0.06972825375,0.030100213611108,0.0,False,NM,0.001319799999999,225,full,False,0.001319799999999
mp-977555,MgNbRh2,-0.48255177625,0.0,0.0,False,NM,1.4100000000000002e-05,225,full,False,1.4100000000000002e-05
mp-977430,MgNbRu2,-0.254914421249999,0.0,0.0,False,NM,2e-07,225,full,False,2e-07
mp-30773,MgNi2Sb,-0.278498023749999,0.06954002830357,0.0,False,NM,5.099999999999999e-06,225,full,False,5.099999999999999e-06
mp-30774,MgNi2Sn,-0.268549039999994,0.0,0.0,False,NM,0.0027071,225,full,False,0.0027071
mp-29733,MgNiBi,-0.190246501666669,0.0,0.0,False,NM,1.4e-06,216,half,False,1.4e-06
mp-15778,MgNiSb,-0.460461714999998,0.0,0.0,False,NM,6e-07,216,half,False,6e-07
mp-1185917,MgPaAu2,-0.426633531250001,0.0,0.0,True,FM,0.6183753,225,full,True,0.6183753
mp-1185914,MgPaPt2,-0.862502686249999,0.0,0.0,False,NM,0.000101099999999,225,full,False,0.000101099999999
mp-977441,MgPaRh2,-0.621889128749999,0.0,0.0,False,NM,0.000816,225,full,False,0.000816
mp-977558,MgPaRu2,-0.379237658749998,0.0,0.0,False,NM,9.6e-06,225,full,False,9.6e-06
mp-1185915,MgPaTc2,-0.077512081250001,0.0,0.0,False,NM,0.000440099999999,225,full,False,0.000440099999999
mp-1185923,MgPd2Au,-0.5026670762500001,0.0,0.0,False,NM,3e-07,225,full,False,3e-07
mp-977113,MgPdAu2,-0.429623763749999,0.0218674735,0.0,False,NM,0.0008146,225,full,False,0.0008146
mp-977571,MgRh2Pb,-0.315811041249999,0.0,0.0,False,NM,6.799999999999997e-06,225,full,False,6.799999999999997e-06
mp-1185943,MgRu2W,-0.147108803749997,0.0,0.0,False,NM,4.999999999999999e-06,225,full,False,4.999999999999999e-06
mp-10183,MgSbPd,-0.617305951666666,0.0,0.0,False,NM,0.0,216,half,False,0.0
mp-977579,MgSbPd2,-0.604305191249999,0.0278543825,0.0,False,NM,1e-07,225,full,False,1e-07
mp-10184,MgSbPt,-0.700549848333336,0.0,0.0,False,NM,2e-07,216,half,False,2e-07
mp-1185944,MgSbRh2,-0.513952843749999,0.006976350625,0.0,False,NM,0.001647399999999,225,full,False,0.001647399999999
mp-977575,MgSbRu2,-0.21622489125,0.009888666354165,0.0,False,NM,2e-06,225,full,False,2e-06
mp-977580,MgSc2Al,-0.276863163749999,0.0,0.0,False,NM,0.0003592,225,full,False,0.0003592
mp-866077,MgSc2Cd,-0.152068691249998,0.0,0.0,False,NM,0.433017,225,full,False,0.433017
mp-1185965,MgSc2Ga,-0.339333310625,0.026335230937498,0.0,False,NM,0.006480199999999,225,full,False,0.006480199999999
mp-1185964,MgSc2Hg,-0.231579486875001,0.0,0.0,False,NM,0.2772482,225,full,False,0.2772482
mp-977586,MgSc2In,-0.283295102916664,0.0,0.0,True,FM,0.829504799999999,225,full,True,0.829504799999999
mp-1185963,MgSc2Ir,-0.5590431287499991,0.040237996071425,0.0,False,NM,0.010619199999999,225,full,False,0.010619199999999
mp-866081,MgSc2Os,-0.271468781249999,0.007761566145835,0.0,False,NM,0.000484899999999,225,full,False,0.000484899999999
mp-866079,MgSc2Ru,-0.29856756125,0.103697797499999,0.0,False,NM,0.000345,225,full,False,0.000345
mp-866082,MgSc2Tc,-0.113917179999999,0.0178306753125,0.0,False,NM,3.4e-05,225,full,False,3.4e-05
mp-866080,MgSc2Tl,-0.183014637083333,0.0,0.0,True,FM,1.1999157,225,full,True,1.1999157
mp-977554,MgScAg2,-0.275858943333332,0.0,0.0,False,NM,1.33e-05,225,full,False,1.33e-05
mp-1185960,MgScAu2,-0.743946162499998,0.0,0.0,False,NM,3.1200000000000006e-05,225,full,False,3.1200000000000006e-05
mp-1100394,MgScB,-0.092182583055554,0.337134529166666,0.1575,False,NM,0.000732399999999,216,half,False,0.000732399999999
mp-977556,MgScCd2,-0.228566282499999,0.0,0.0,False,NM,2.499999999999999e-06,225,full,False,2.499999999999999e-06
mp-961665,MgScGa,-0.279399509166667,0.139297552499999,0.0554,False,NM,0.003152899999999,216,half,False,0.003152899999999
mp-977564,MgScHg2,-0.377060083750002,0.0,0.0,False,NM,1e-07,225,full,False,1e-07
mp-1185957,MgScIr2,-0.7056134675000011,0.004180634144735,0.0,False,NM,1.1e-06,225,full,False,1.1e-06
mp-977566,MgScPd2,-0.831790764999999,0.0,0.0,False,NM,6e-06,225,full,False,6e-06
mp-1185958,MgScPt2,-1.05601506,0.0,0.0,False,NM,3e-07,225,full,False,3e-07
mp-866069,MgScRh2,-0.803388284999998,0.0,0.0,False,NM,0.0,225,full,False,0.0
mp-962071,MgScTl,0.255079955555553,0.382752605,0.0,False,NM,0.0015398,216,half,False,0.0015398
mp-1185961,MgScZn2,-0.307532452499999,0.0,0.0,False,NM,1.48e-05,225,full,False,1.48e-05
mp-866086,MgSiIr2,-0.5389448612499981,0.0,0.0,False,NM,0.0,225,full,False,0.0
mp-1017516,MgSiP2,0.287620386428571,0.6988827275,0.0,False,NM,0.0010823,225,full,False,0.0010823
mp-866087,MgSiRh2,-0.7484711662500001,0.0,0.0,False,NM,4.1e-06,225,full,False,4.1e-06
mp-5549,MgSnAu,-0.434026843333333,0.0,0.0,False,NM,4e-07,216,half,False,4e-07
mp-864906,MgSnIr2,-0.331300907499998,0.0,0.0,False,NM,3.9e-06,225,full,False,3.9e-06
mp-864883,MgSnPd2,-0.672182389999998,0.0,0.0,False,NM,0.0,225,full,False,0.0
mp-866073,MgSnRh2,-0.6325345399999991,0.0,0.0,False,NM,1.1e-05,225,full,False,1.1e-05
mp-1185980,MgSnRu2,-0.122905219999998,0.004328620029761,0.0,False,NM,0.0034969,225,full,False,0.0034969
mp-866075,MgTaIr2,-0.5456193755833331,0.0,0.0,False,NM,0.033456099999999,225,full,False,0.033456099999999
mp-866071,MgTaOs2,-0.17512255058333,0.0,0.0,False,NM,4.9000000000000005e-06,225,full,False,4.9000000000000005e-06
mp-866072,MgTaRh2,-0.5557907105833341,0.0,0.0,False,NM,2.2e-06,225,full,False,2.2e-06
mp-864903,MgTaRu2,-0.348921408083331,0.0,0.0,False,NM,3.8700000000000006e-05,225,full,False,3.8700000000000006e-05
mp-631335,MgTaZn,0.668751169222222,0.7395871590888891,0.0,False,NM,0.1174151,216,half,False,0.1174151
mp-1185975,MgTiCo2,-0.197108172083333,0.021323858749999,0.0,False,NM,3.799999999999998e-06,225,full,False,3.799999999999998e-06
mp-864908,MgTiIr2,-0.7674558595833321,0.0,0.0,False,NM,3e-07,225,full,False,3e-07
mp-864919,MgTiRh2,-0.7641694720833331,0.0,0.0,False,NM,1e-07,225,full,False,1e-07
mp-864902,MgTlRh2,-0.255620167083336,0.0,0.0,False,NM,3.4800000000000006e-05,225,full,False,3.4800000000000006e-05
mp-1185623,MgURu2,-0.199739206249999,0.018292870416665,0.0,True,FiM,1.453691399999999,225,full,True,1.453691399999999
mp-1185618,MgVRh2,-0.408425596249999,0.009542651249999,0.0,True,FM,0.964533,225,full,True,0.964533
mp-1185620,MgVRu2,-0.173042968749999,0.0,0.0,False,NM,0.0071086,225,full,False,0.0071086
mp-1185621,MgZn2Ir,-0.274693571249999,0.0,0.0,False,NM,1e-07,225,full,False,1e-07
mp-1185617,MgZn2Pt,-0.446755641249999,0.016772005714284,0.0,False,NM,0.0007972,225,full,False,0.0007972
mp-1185619,MgZn2Rh,-0.332006191249999,0.003490302749999,0.0,False,NM,1e-07,225,full,False,1e-07
mp-11236,MgZnAg2,-0.152613897083332,0.0,0.0,False,NM,2.2000000000000003e-05,225,full,False,2.2000000000000003e-05
mp-864922,MgZnAu2,-0.416139728749996,0.0,0.0,False,NM,4e-06,225,full,False,4e-06
mp-1185615,MgZnNi2,-0.199294948749999,0.019069445381944,0.0,False,NM,0.0003206,225,full,False,0.0003206
mp-864923,MgZnPd2,-0.655365598749995,0.0,0.0,False,NM,1.2e-06,225,full,False,1.2e-06