material_id,formula,formation_energy,ehull,band_gap,is_magnetic_x,magnetic_ordering,total_magnetization_x,spacegroup,heusler_type,is_magnetic_y,total_magnetization_y
mp-1186123,NaCd2Ag,-0.034234010761492,0.024412766121031,0.0,False,NM,0.000470899999999,225,full,False,0.000470899999999
mp-976289,NaCd2Au,-0.173912735344826,0.026564299375,0.0,False,NM,6.290000000000001e-05,225,full,False,6.290000000000001e-05
mp-1186121,NaCd2In,-0.046023477011493,0.016103461382978,0.0,False,NM,1.6e-06,225,full,False,1.6e-06
mp-1186125,NaCd2Pd,-0.199589512844826,0.011849948437499,0.0,False,NM,2.24e-05,225,full,False,2.24e-05
mp-865076,NaCd2Pt,-0.230808647844828,0.0,0.0,False,NM,2.7e-06,225,full,False,2.7e-06
mp-1186122,NaCd2Rh,-0.036280867844825,0.0,0.0,False,NM,2.6e-06,225,full,False,2.6e-06
mp-976220,NaCdHg2,-0.153678824094831,0.015048504999998,0.0,False,NM,2.04e-05,225,full,False,2.04e-05
mp-1186119,NaCdPd2,-0.225780335344826,0.001753125905173,0.0,False,NM,0.000975699999999,225,full,False,0.000975699999999
mp-865080,NaCeAu2,-0.497790127844825,0.021251012187502,0.0,True,FM,1.2018166,225,full,True,1.2018166
mp-1186155,NaCeHg2,-0.407179343750002,0.0,0.0,True,FM,1.3855943,225,full,True,1.3855943
mp-865089,NaCeTl2,-0.349408772499998,0.0,0.0,True,FM,1.0446146,225,full,True,1.0446146
mp-1008867,NaCuO,-0.6863907787931021,0.539668479999999,0.0,False,NM,3.1100000000000004e-05,216,half,False,3.1100000000000004e-05
mp-865114,NaDyTl2,-0.318894631250003,0.0,0.0,False,NM,5e-07,225,full,False,5e-07
mp-865117,NaErTl2,-0.209581114511498,0.0,0.0,False,NM,5.9e-06,225,full,False,5.9e-06
mp-866536,NaEu2Sn,-0.406779320387936,0.156329798362069,0.0,True,FM,14.365399,225,full,True,14.365399
mp-1186139,NaEu2Tl,-0.235294745000004,0.014037150499994,0.0,True,FM,14.0650883,225,full,True,14.0650883
mp-1186157,NaEuAu2,-0.573689404094828,0.007914806875001,0.0,True,FM,7.0700846,225,full,True,7.0700846
mp-1186144,NaEuHg2,-0.421981118124996,0.019749216874998,0.0,True,FM,7.514172999999999,225,full,True,7.514172999999999
mp-866047,NaEuTl2,-0.357906541249995,0.0,0.0,True,FM,7.0931387,225,full,True,7.0931387
mp-1186166,NaGdHg2,-0.372562254375004,0.030951124375,0.0,True,FM,7.270517,225,full,True,7.270517
mp-1186168,NaGdTl2,-0.303377965000002,0.001272524999997,0.0,True,FM,7.114117,225,full,True,7.114117
mp-865097,NaHgPd2,-0.169706213469829,0.0,0.0,False,NM,3e-07,225,full,False,3e-07
mp-865096,NaHoTl2,-0.308490063749999,0.0,0.0,False,NM,5.6e-06,225,full,False,5.6e-06
mp-976326,NaInAg2,-0.08625744,0.046456289930553,0.0,False,NM,3.7300000000000005e-05,225,full,False,3.7300000000000005e-05
mp-865100,NaInHg2,-0.210820851250002,0.0,0.0,False,NM,4e-07,225,full,False,4e-07
mp-1186140,NaInPd2,-0.392586368423639,0.029242815237068,0.0,False,NM,0.0007139,225,full,False,0.0007139
mp-631317,NaIrPb,0.8110907806249941,0.991058083958314,0.0,False,NM,0.00048,216,half,False,0.00048
mp-865098,NaLaAu2,-0.619128131594826,0.0,0.0,False,NM,6e-07,225,full,False,6e-07
mp-865099,NaLaHg2,-0.467993412500007,0.0,0.0,False,NM,0.000379699999999,225,full,False,0.000379699999999
mp-865102,NaLaTl2,-0.295952238261494,0.001610881030894,0.0,False,NM,0.0008409,225,full,False,0.0008409
mp-865101,NaLi2Bi,-0.602806837083335,0.0,0.6303000000000001,False,NM,0.0,225,full,False,0.0
mp-10525,NaLi2N,-0.052535050571119,0.287683933283046,2.134699999999999,False,NM,0.000144,225,full,False,0.000144
mp-975997,NaLi2Pb,-0.241694024511493,0.020113429716666,0.0,False,NM,0.0056358,225,full,False,0.0056358
mp-5077,NaLi2Sb,-0.7055747683333331,0.0,0.6796000000000001,False,NM,0.0,225,full,False,0.0
mp-1186135,NaLi2Sn,-0.288079030761494,0.024865563538793,0.0,False,NM,0.006685099999999,225,full,False,0.006685099999999
mp-961703,NaLiPt,0.19207614559387,0.6286753444827581,0.5526,False,NM,1.6e-06,216,half,False,1.6e-06
mp-962066,NaLiTe,-0.7993767837931031,0.329873915,2.1547,False,NM,0.000455699999999,216,half,False,0.000455699999999
mp-1186141,NaMgHg2,-0.203849082844831,0.012860590374998,0.0,False,NM,1.5e-06,225,full,False,1.5e-06
mp-961699,NaMgP,0.133527832992611,0.63418976,0.0,False,NM,0.0007287,216,half,False,0.0007287
mp-865107,NaMgPb2,-0.111020624094825,0.0,0.0,False,NM,1.4e-06,225,full,False,1.4e-06
mp-865110,NaMgTl2,-0.083778493261496,0.0,0.0,False,NM,9e-07,225,full,False,9e-07
mp-865113,NaNdAu2,-0.587236702219827,0.012755826031251,0.0,False,NM,4.1e-06,225,full,False,4.1e-06
mp-865115,NaNdHg2,-0.442352603125002,0.0,0.0,False,NM,5.1900000000000015e-05,225,full,False,5.1900000000000015e-05
mp-865122,NaNdTl2,-0.259280411386496,0.00853500519756,0.0,False,NM,1.1e-06,225,full,False,1.1e-06
mp-631344,NaOsSe2,0.8201776871874951,1.453631667343749,0.0,True,FM,0.1324585,216,full,True,0.1324585
mp-981933,NaPd2Pb,-0.255437997499999,0.027146794374999,0.0,False,NM,9e-07,225,full,False,9e-07
mp-1186174,NaPm2Sn,-0.399462751249998,0.020736526708329,0.0,False,NM,0.000234299999999,225,full,False,0.000234299999999
mp-862942,NaPmAu2,-0.664422989374998,0.0,0.0,False,NM,1e-07,225,full,False,1e-07
mp-862943,NaPmHg2,-0.439698105624998,0.0,0.0,False,NM,3.61e-05,225,full,False,3.61e-05
mp-862945,NaPmTe2,-1.313305866875001,0.0,0.0,False,NM,3e-07,225,full,False,3e-07
mp-862949,NaPmTl2,-0.358777494375004,0.0,0.0,False,NM,2e-07,225,full,False,2e-07
mp-865118,NaPrAu2,-0.5814311382614921,0.000593540937502,0.0,False,NM,4e-07,225,full,False,4e-07
mp-865119,NaPrHg2,-0.442503451666667,0.0,0.0,False,NM,0.0001048,225,full,False,0.0001048
mp-865112,NaPrTl2,-0.365147975416668,0.002109246770828,0.0,False,NM,1.16e-05,225,full,False,1.16e-05
mp-1100440,NaScSn,-0.026545640793652,0.486440504269841,0.303999999999999,False,NM,0.000361799999999,216,half,False,0.000361799999999
mp-865111,NaSmAu2,-0.589452589094826,0.0,0.0,False,NM,2e-07,225,full,False,2e-07
mp-865108,NaSmHg2,-0.431585578750002,0.002939725833329,0.0,False,NM,9e-07,225,full,False,9e-07
mp-865109,NaSmTl2,-0.248678128261496,0.005893130781252,0.0,False,NM,1.5e-06,225,full,False,1.5e-06
mp-977110,NaSnPd2,-0.4145077125,0.028483886666663,0.0,False,NM,0.0,225,full,False,0.0
mp-865124,NaSr2In,-0.212689639511493,0.023593699103702,0.0,False,NM,0.0116615,225,full,False,0.0116615
mp-865128,NaSr2Tl,-0.247545492499998,0.0,0.0,False,NM,0.011413399999999,225,full,False,0.011413399999999
mp-865121,NaSrAu2,-0.5846316874999961,0.026257758000003,0.0,False,NM,1.3700000000000004e-05,225,full,False,1.3700000000000004e-05
mp-977115,NaSrHg2,-0.373060409094829,0.007105399375001,0.0,False,NM,0.082132,225,full,False,0.082132
mp-631481,NaSrNb2,1.575021724195401,1.575021724195401,0.0,True,FM,1.0722703,225,full,True,1.0722703
mp-631534,NaSrRe2,2.046538816695403,2.046538816695403,0.0,True,FM,4.7568756,225,full,True,4.7568756
mp-1186171,NaSrTl2,-0.320486354687496,0.016682664218752,0.0,False,NM,0.0022887,225,full,False,0.0022887
mp-631337,NaTaNi,1.466883314222222,1.649500366166663,0.0,False,NM,0.1809269,216,half,False,0.1809269
mp-1186177,NaTbTl2,-0.229456003678167,0.0,0.0,False,NM,5.799999999999999e-06,225,full,False,5.799999999999999e-06
mp-865145,NaTl2Bi,-0.188457398749996,0.014346414999991,0.0,False,NM,0.0,225,full,False,0.0
mp-865127,NaTl2Cd,-0.063544542011498,0.0,0.0,False,NM,0.0,225,full,False,0.0
mp-1186185,NaTl2In,-0.125592957499996,0.0,0.0,False,NM,3e-07,225,full,False,3e-07
mp-977162,NaTl2Pb,-0.114015813333331,0.020959664166667,0.0,False,NM,0.0139029,225,full,False,0.0139029
mp-977205,NaTl2Pd,-0.172531864999996,0.014864715294109,0.0,False,NM,3e-07,225,full,False,3e-07
mp-977204,NaTl2Sb,-0.203964474872684,0.020397186377316,0.0,False,NM,0.000188799999999,225,full,False,0.000188799999999
mp-1186187,NaTl2Sn,-0.100602567916666,0.032206337395834,0.0,False,NM,0.037656499999999,225,full,False,0.037656499999999
mp-1186188,NaTlHg2,-0.184693676249999,0.013436067500002,0.0,False,NM,1.1e-06,225,full,False,1.1e-06
mp-865126,NaTlPd2,-0.21045003,0.0,0.0,False,NM,0.0,225,full,False,0.0
mp-866128,NaTmTl2,-0.289321427499999,0.0,0.0,False,NM,5.9e-06,225,full,False,5.9e-06
mp-635327,NaY2In,0.127275790862071,0.49820788336207,0.0,False,NM,0.0891506,225,full,False,0.0891506
mp-962060,NaYSi,0.155427322816092,0.7542461944827601,0.208699999999999,False,NM,4.77e-05,216,half,False,4.77e-05
mp-962064,NaYSn,0.009947487873563,0.5083320217424211,0.101799999999999,False,NM,0.000243299999999,216,half,False,0.000243299999999
mp-1186196,NaYTl2,-0.317418347499995,0.0,0.0,False,NM,5.9e-06,225,full,False,5.9e-06
mp-865849,NaYbAu2,-0.657612963749997,0.063675367559525,0.0,False,NM,3.9e-06,225,full,False,3.9e-06
mp-1186201,NaYbPb2,-0.318756383749999,0.0,0.0,False,NM,9.199999999999997e-06,225,full,False,9.199999999999997e-06
mp-34240,NaZnAs,-0.279341486293103,0.135616123333333,0.0,False,NM,1.89e-05,216,half,False,1.89e-05
mp-1186203,Nb2CrOs,-0.145562904999998,0.064149342361108,0.0,False,NM,8e-07,225,full,False,8e-07
mp-1186200,Nb2CrRu,-0.102559058749999,0.060244265833333,0.0,False,NM,1.7100000000000002e-05,225,full,False,1.7100000000000002e-05
mp-1186205,Nb2MoOs,-0.29208458,0.0,0.0,False,NM,9.8e-06,225,full,False,9.8e-06
mp-1186206,Nb2MoRu,-0.251421208749999,0.0,0.0,False,NM,1.3e-06,225,full,False,1.3e-06
mp-1186207,Nb2ReRu,-0.264527451875004,0.0,0.0,False,NM,1.05e-05,225,full,False,1.05e-05
mp-1186208,Nb2ReTc,-0.361623363125001,0.0,0.0,False,NM,1.3e-06,225,full,False,1.3e-06
mp-982725,Nb2RuW,-0.158787656250005,0.011075368837211,0.0,False,NM,2.44e-05,225,full,False,2.44e-05
mp-1186210,Nb2TcOs,-0.307466377499999,0.0,0.0,False,NM,0.000114999999999,225,full,False,0.000114999999999
mp-1186209,Nb2TcRu,-0.289452818749996,0.022269798020833,0.0,False,NM,8.750000000000004e-05,225,full,False,8.750000000000004e-05
mp-5149,NbAlCo2,-0.4162606125,0.0,0.0,True,FM,2.0000777,225,full,True,2.0000777
mp-865280,NbAlFe2,-0.375754104999999,0.0,0.3207,False,NM,0.0,225,full,False,0.0
mp-4813,NbAlNi2,-0.431075287499998,0.007198464916665,0.0,False,NM,5.6600000000000014e-05,225,full,False,5.6600000000000014e-05
mp-865278,NbAlOs2,-0.555932304999998,0.0,0.0,False,NM,2.8e-06,225,full,False,2.8e-06
mp-961680,NbAlPt,-0.159647502833337,0.66268204333333,0.0,False,NM,0.0001239,216,half,False,0.0001239
mp-11537,NbAlRu2,-0.7234191700000031,0.0,0.0,False,NM,2e-07,225,full,False,2e-07
mp-1100406,NbAsRu,0.095154014166666,0.5424827183333321,0.0,False,NM,1.8e-06,216,half,False,1.8e-06
mp-631531,NbBW,1.6003860124999911,2.139855604999997,0.0,False,NM,0.0036438,216,half,False,0.0036438
mp-631441,NbBi2Mo,0.6922771350000041,0.7265993124999991,0.0,False,NM,0.0012309,216,full,False,0.0012309
mp-4583,NbCo2Sn,-0.10970941625,0.125228089999999,0.0,True,FM,1.929951,225,full,True,1.929951
mp-31460,NbCoSb,-0.264988063333333,0.020578627719294,0.0,False,NM,0.232171699999999,216,half,False,0.232171699999999
mp-1094088,NbCoSn,-0.313250008333332,0.0,0.970399999999999,False,NM,0.0,216,half,False,0.0
mp-30560,NbCoSn,0.688834795,1.002084803333333,0.0,True,FM,1.2593054,216,half,False,0.0
mp-568075,NbCoSn,0.5555590383333331,0.868809046666665,0.0,True,FM,0.1941829,216,half,False,0.0
mp-631299,NbCrCo,0.83372563,0.939377476777778,0.0,True,FiM,3.046156,216,half,True,3.046156
mp-631452,NbCrW,1.030356558333338,1.041665481666669,0.0,True,FiM,0.860027099999999,216,half,True,0.860027099999999
mp-1186223,NbFeRu2,-0.089619324999999,0.032617276666668,0.0,True,FM,4.6265604,225,full,True,4.6265604
mp-9437,NbFeSb,-0.402070886666668,0.0,0.513799999999999,False,NM,0.0,216,half,False,0.0
mp-4364,NbGaCo2,-0.310616074374999,0.0,0.0,True,FM,2.0004925,225,full,True,2.0004925
mp-977410,NbGaFe2,-0.257838301874999,0.0,0.0905,False,NM,0.0,225,full,False,0.0
mp-3539,NbGaNi2,-0.333681539374999,0.011909727114487,0.0,False,NM,5.9100000000000014e-05,225,full,False,5.9100000000000014e-05
mp-1186222,NbGaOs2,-0.305063247500001,0.0,0.0,False,NM,2e-07,225,full,False,2e-07
mp-961669,NbGaPt,-0.088440139166665,0.460185683333334,0.0,False,NM,8.59e-05,216,half,False,8.59e-05
mp-977401,NbGaRu2,-0.5585245000000001,0.0,0.0,False,NM,0.0,225,full,False,0.0
mp-1186224,NbGaTc2,-0.2576365725,0.01495414,0.0,False,NM,0.0013126,225,full,False,0.0013126
mp-961726,NbGeRh,0.008528901666667,0.6169450924999991,0.0,False,NM,0.0003786,216,half,False,0.0003786
mp-864669,NbGeRu2,-0.267934366250008,0.0,0.0,True,FM,0.809165399999999,225,full,True,0.809165399999999
mp-961731,NbInNi,0.661525594444444,0.8116503452380951,0.0,False,NM,0.0046495,216,half,False,0.0046495
mp-961708,NbInPt,0.051087372583339,0.611438533749996,0.0,False,NM,0.002193199999999,216,half,False,0.002193199999999
mp-1021660,NbInRu,0.11360931708334,0.376232192500001,0.0,True,FM,0.5408159,216,half,True,0.5408159
mp-864788,NbInRu2,-0.3430913525,0.0,0.0,False,NM,1.4e-06,225,full,False,1.4e-06
mp-3504,NbNi2Sn,-0.196211628749998,0.051920869838712,0.0,False,NM,8e-06,225,full,False,8e-06
mp-631356,NbOsPb,0.7682431844444391,0.9226721864814772,0.0,False,NM,0.005006099999999,216,half,False,0.005006099999999
mp-631412,NbRu2Cl,0.5135378475000001,1.188572746249996,0.0,False,NM,5.7800000000000016e-05,225,full,False,5.7800000000000016e-05
mp-1209893,NbSBr,-1.368515633333333,0.02586728884922,0.0,True,FM,2.0230043,216,half,True,2.0230043
mp-1209965,NbSI,-1.138119263333333,0.011184971885966,0.0,True,FM,2.000123,216,half,True,2.000123
mp-31453,NbSbRh,-0.400565796666666,0.073689711083333,0.0,True,FM,0.923721399999999,216,half,True,0.923721399999999
mp-505297,NbSbRu,-0.515632994999999,0.0,0.377299999999999,False,NM,0.0,216,half,False,0.0
mp-1209865,NbSeBr,-1.222747533281247,0.001202283750005,0.0,True,FM,1.9997605999999992,216,half,True,1.9997605999999992
mp-23051,NbSeI,-1.013509827447916,0.008265339166666,0.0,True,FM,2.0009714,216,half,True,2.0009714
mp-1100400,NbSiRh,-0.211761196666665,0.629086457499998,0.0,True,FM,0.3511168,216,half,True,0.3511168
mp-1186228,NbSiRu2,-0.417447732499999,0.064326278333334,0.0,True,FM,0.5465355,225,full,True,0.5465355
mp-864672,NbSiTc2,-0.456378368749998,0.0,0.0,False,NM,2.24e-05,225,full,False,2.24e-05
mp-30796,NbSnRh,0.341956508333333,0.7037227498809511,0.0,True,FM,0.3188367,216,half,True,0.3188367
mp-631352,NbSnRu,0.596433260448719,0.828892292948719,0.0,False,NM,0.0001548,216,half,False,0.0001548
mp-1186233,NbSnRu2,-0.260648565000003,0.0,0.0,True,FM,0.8491105,225,full,True,0.8491105
mp-977409,NbTc2Ge,-0.259307798750001,0.0,0.0,False,NM,2.29e-05,225,full,False,2.29e-05
mp-1186232,NbTc2Sn,-0.207898630000002,0.0,0.0,False,NM,0.0001368,225,full,False,0.0001368
mp-961704,NbTlPt,0.614533467222221,1.057323620555557,0.0,False,NM,0.0003566,216,half,False,0.0003566
mp-864857,NbZnCo2,-0.162427544999987,0.0,0.0,True,FiM,1.0513642,225,full,True,1.0513642
mp-864831,NbZnRh2,-0.464071497499992,0.0,0.0,False,NM,0.0002308,225,full,False,0.0002308
mp-864840,NbZnRu2,-0.257951754999998,0.0,0.0,False,NM,0.000127599999999,225,full,False,0.000127599999999
mp-974387,Nd2AgHg,-0.415051351875,0.003556877499995,0.0,True,FM,0.2077891,225,full,True,0.2077891
mp-977404,Nd2AgIr,-0.524585854912039,0.048167581159418,0.0,False,NM,0.0009943,225,full,False,0.0009943
mp-1186235,Nd2AgRu,-0.220358747031252,0.023519266874998,0.0,False,NM,0.0072447,225,full,False,0.0072447
mp-1186236,Nd2CdAg,-0.267133861666663,0.007896097500001,0.0,True,FM,0.452312899999999,225,full,True,0.452312899999999
mp-973779,Nd2CdHg,-0.377544856874998,0.008660625,0.0,True,FM,1.0224864,225,full,True,1.0224864
mp-866067,Nd2CdIn,-0.401046802916664,0.0,0.0,False,NM,0.0020975,225,full,False,0.0020975
mp-864805,Nd2CuIr,-0.48188325083333,0.055671837499996,0.0,False,NM,0.0001719,225,full,False,0.0001719
mp-864837,Nd2CuRu,-0.178804083906243,0.029915763750004,0.0,False,NM,0.000430799999999,225,full,False,0.000430799999999
mp-1186238,Nd2GaAg,-0.458256392499997,0.027970631249999,0.0,True,FM,0.3093312,225,full,True,0.3093312
mp-1186242,Nd2HgPb,-0.6318309431249951,0.044850712968752,0.0,False,NM,0.0007407,225,full,False,0.0007407
mp-1186279,Nd2InAg,-0.450811842500002,0.003113282499995,0.0,True,FM,0.3426161,225,full,True,0.3426161
mp-1186249,Nd2InHg,-0.596742443125002,0.0,0.0,True,FM,0.908348899999999,225,full,True,0.908348899999999
mp-973606,Nd2IrAu,-0.678173896249999,0.058283607678569,0.0,False,NM,0.0011997,225,full,False,0.0011997
mp-864622,Nd2IrPd,-0.7116777887499991,0.027145546428571,0.0,False,NM,0.0193727,225,full,False,0.0193727
mp-864611,Nd2IrRh,-0.622310441249998,0.047562932678571,0.0,False,NM,0.0001685,225,full,False,0.0001685
mp-976252,Nd2IrRu,-0.386574708916668,0.133505057083333,0.0,False,NM,0.015187899999999,225,full,False,0.015187899999999
mp-864610,Nd2MgAl,-0.245427432499999,0.0,0.0,False,NM,2.899999999999999e-06,225,full,False,2.899999999999999e-06
mp-1186253,Nd2MgCd,-0.1833661975,0.013470684999997,0.0,False,NM,0.000306399999999,225,full,False,0.000306399999999
mp-864612,Nd2MgIn,-0.318221406666666,0.0,0.0,False,NM,0.0002994,225,full,False,0.0002994
mp-864602,Nd2MgTl,-0.249911013333333,0.007034495833332,0.0,False,NM,0.0011369,225,full,False,0.0011369
mp-864659,Nd2NiIr,-0.444347543749999,0.074989975000001,0.0,False,NM,0.010684299999999,225,full,False,0.010684299999999
mp-864633,Nd2SnHg,-0.600628073125,0.020945180937498,0.0,False,NM,1.19e-05,225,full,False,1.19e-05
mp-1186256,Nd2TlAg,-0.319850047500001,0.0,0.0,True,FM,0.325217,225,full,True,0.325217
mp-1186254,Nd2TlCd,-0.339591142083334,0.004012842499999,0.0,True,FM,0.947724799999999,225,full,True,0.947724799999999
mp-1186255,Nd2TlHg,-0.422012687708337,0.007909484999998,0.0,True,FM,0.9572795,225,full,True,0.9572795
mp-1186261,Nd2TlIn,-0.432137543749999,0.004129275,0.0,False,NM,4.26e-05,225,full,False,4.26e-05
mp-976341,Nd2ZnAg,-0.277327844166665,0.005125747499999,0.0,True,FM,0.3827345,225,full,True,0.3827345
mp-976344,Nd2ZnGa,-0.446007148125,0.005450062499997,0.0,False,NM,4.560000000000002e-05,225,full,False,4.560000000000002e-05
mp-1186257,Nd2ZnHg,-0.374408076875,0.019221037499998,0.0,True,FM,0.6620973,225,full,True,0.6620973
mp-1186322,Nd2ZnIn,-0.262045070416665,0.137928689999998,0.0,False,NM,0.0005637,225,full,False,0.0005637
mp-977445,Nd2ZnIr,-0.478386341249999,0.054365950982144,0.0,False,NM,0.000850899999999,225,full,False,0.000850899999999
mp-1186258,Nd2ZnRu,-0.224146188749998,0.03903887875,0.0,False,NM,2.5200000000000003e-05,225,full,False,2.5200000000000003e-05
mp-864892,NdAgAu2,-0.568616172291667,0.011866030044641,0.0,False,NM,4.8e-06,225,full,False,4.8e-06
mp-864893,NdAgHg2,-0.416745356874997,0.0,0.0,False,NM,1e-06,225,full,False,1e-06
mp-1186292,NdAlAg2,-0.323257088864664,0.040360287598041,0.0,False,NM,0.00104,225,full,False,0.00104
mp-977565,NdBiAu2,-0.611393799374999,0.044731983018021,0.0,False,NM,9.83e-05,225,full,False,9.83e-05
mp-1008858,NdBiPd,-0.946085179166664,0.0,0.1051,False,NM,0.0,216,half,False,0.0
mp-1186295,NdCdAg2,-0.267994552708331,0.0,0.0,False,NM,5.7900000000000005e-05,225,full,False,5.7900000000000005e-05
mp-977562,NdCdAu2,-0.6396255943750021,0.0,0.0,False,NM,1.55e-05,225,full,False,1.55e-05
mp-1186298,NdCdHg2,-0.400843728125001,0.0,0.0,False,NM,3e-07,225,full,False,3e-07
mp-977557,NdCdPd2,-0.6324551068749981,0.028773304374999,0.0,False,NM,0.001402499999999,225,full,False,0.001402499999999
mp-1186359,NdDyIn2,-0.605512615624999,0.008381792916654,0.0,False,NM,2.75e-05,225,full,False,2.75e-05
mp-866063,NdDyMg2,-0.077100907291665,0.0,0.0,False,NM,9.06e-05,225,full,False,9.06e-05
mp-975528,NdDyTl2,-0.354549646458332,0.0,0.0,False,NM,6.390000000000004e-05,225,full,False,6.390000000000004e-05
mp-1186297,NdDyZn2,-0.322062482291665,0.005751747499997,0.0,False,NM,0.0073536,225,full,False,0.0073536
mp-975442,NdErIn2,-0.5839707902083291,0.0068946825,0.0,False,NM,4.89e-05,225,full,False,4.89e-05
mp-974517,NdErMg2,-0.074314314374998,0.0002775375,0.0,False,NM,6.560000000000002e-05,225,full,False,6.560000000000002e-05
mp-974523,NdErTl2,-0.342081426041669,0.0031136925,0.0,False,NM,0.0001326,225,full,False,0.0001326
mp-974638,NdErZn2,-0.324655066875,0.009841559999998,0.0,False,NM,0.0013137,225,full,False,0.0013137
mp-1186310,NdEuAg2,-0.266369508124999,0.028045937500003,0.0,True,FM,7.2694509,225,full,True,7.2694509
mp-1186311,NdEuHg2,-0.584440166874998,0.000769462500002,0.0,True,FM,7.2609704,225,full,True,7.2609704
mp-1186306,NdGaAu2,-0.614731418749999,0.056849749198806,0.0,False,NM,0.001359199999999,225,full,False,0.001359199999999