material_id,formula,formation_energy,ehull,band_gap,is_magnetic,magnetic_ordering,total_magnetization,spacegroup
mp-1517771,KCaEuWO6,-2.615334279225,0.218188092750002,0.0,True,FM,6.0000007,216
mp-1519883,KCaFeBiO6,-1.724320465725,0.176231587500003,0.0,True,FM,5.8512682,216
mp-1521656,KCaGdFeO6,-2.189446868725,0.18892381287499502,0.0,True,FiM,9.0000008,216
mp-1521341,KCaGdSeO6,-2.369022943959374,0.20101185129166402,2.0096,True,FM,7.0000001,216
mp-1517607,KCaGdWO6,-2.834556823724999,0.127792356249971,2.8078000000000003,True,FM,6.9999999,216
mp-1520522,KCaHfBiO6,-2.578661626724999,0.118099942750001,1.289499999999999,False,NM,0.0,216
mp-1519658,KCaHfSbO6,-2.871750287724999,0.06328233050000301,3.3114,False,NM,0.0,216
mp-1519052,KCaInWO6,-2.359078096391665,0.11166798325000502,3.432,False,NM,0.0,216
mp-1521616,KCaLaFeO6,-2.194949242224999,0.19194966025000001,0.0,True,FiM,2.0000003,216
mp-1516282,KCaLaSeO6,-2.396523217459376,0.168640859666662,2.2661,False,NM,0.0,216
mp-1522074,KCaLaWO6,-2.810496332225,0.15363991074997702,2.2667,False,NM,0.0,216
mp-1522338,KCaLaWO6,-2.780165153225,0.183971089749977,2.918599999999999,False,NM,0.0,216
mp-1517626,KCaNbBiO6,-2.396354770725,0.165728435312496,0.0,False,NM,2e-06,216
mp-1519547,KCaNbWO6,-2.629141614725,0.133338716383327,0.0,True,FM,2.0,216
mp-1520270,KCaNdWO6,-2.775029720474999,0.157638612583325,2.8268,False,NM,0.0,216
mp-631619,KCaNi2,0.6426552056875,0.7845156869375001,0.0,True,FM,0.628879499999999,225
mp-1520016,KCaPrSbO6,-2.453891457891666,0.18751821474999902,0.0,False,NM,0.999999899999999,216
mp-1521769,KCaPrWO6,-2.751319041891666,0.164273576624993,2.8172,False,NM,0.0,216
mp-1522228,KCaPrWO6,-2.7429578738916662,0.172634744624994,2.8049,False,NM,0.0,216
mp-1519830,KCaSmFeO6,-2.1621187102249992,0.20788714018749602,0.0,True,FiM,4.0000004,216
mp-1523349,KCaSmSeO6,-2.353657891459375,0.20801207260416102,2.066599999999999,False,NM,0.0,216
mp-1521200,KCaSmWO6,-2.812806633224999,0.137650297874995,2.8322000000000003,False,NM,0.0,216
mp-1522924,KCaSnBiO6,-1.9401655392250001,0.19340452200000202,0.0,False,NM,0.0,216
mp-1516532,KCaTbBiO6,-2.275398698391666,0.168025070187501,0.0,False,NM,1.0000001,216
mp-1519793,KCaTbFeO6,-2.203236278391666,0.196826723562496,0.0,True,FiM,1.998619699999999,216
mp-1522695,KCaTbNbO6,-2.9311477183916663,0.16904485364583602,0.0,False,NM,1.0,216
mp-1521279,KCaTbWO6,-2.866703820391667,0.111446776541662,2.8457,False,NM,0.0,216
mp-1521577,KCaTiBiO6,-2.416488118058333,0.14784799850000102,0.6149,False,NM,0.0,216
mp-1517045,KCaYSeO6,-2.384621285959375,0.200028541979163,2.0489,False,NM,0.0,216
mp-1520844,KCaYWO6,-2.863551791724999,0.110861952249983,2.8432999999999993,False,NM,0.0,216
mp-1523209,KCaZrBiO6,-2.505783981725,0.11559609100000001,1.2018,False,NM,0.0,216
mp-1520344,KCaZrNbO6,-3.186071456725,0.075079918250001,2.243,False,NM,0.0,216
mp-1516247,KCaZrSbO6,-2.797359036725,0.062292084749999005,3.2186,False,NM,0.0,216
mp-1184962,KCd3,0.010785716644530001,0.114310301703124,0.0,False,NM,0.015164899999999001,225
mp-1521850,KCeEuWO6,-2.828538497225,0.15611300058333502,0.0,True,FiM,6.0000002,216
mp-1516402,KCeHf2O6,-3.536659654724998,0.09980649686784501,0.1491,True,FM,0.9999996,225
mp-1517939,KCeHfSnO6,-2.962232733224999,0.190989921697914,0.17199999999999901,True,FM,0.999999699999999,216
mp-1522421,KCeHfZrO6,-3.447668915725,0.13638013744709201,0.150899999999999,True,FM,0.999999699999999,216
mp-1522415,KCeMgWO6,-2.743557708225,0.14294314441667402,0.13770000000000002,True,FM,0.9999994,216
mp-1517613,KCeMnWO6,-2.491905383518101,0.193447588416665,0.1443,True,FM,6.0,216
mp-1522773,KCeNb2O6,-2.985560093724999,0.092454805472215,0.0,True,FM,1.0821821,225
mp-1520412,KCeNbSnO6,-2.734663236225,0.19549394349999802,1.897699999999999,False,NM,0.0,216
mp-1520426,KCeNdMnO6,-2.780760435268104,0.19821200643180903,2.0177,True,FM,3.0000002,216
mp-1522582,KCePrGeO6,-2.875996143391667,0.19881862052082802,1.9978,False,NM,0.0,216
mp-1520219,KCeSnWO6,-2.4177689672250002,0.18701053191667702,0.0,True,FM,1.0000002,216
mp-1223462,KCeTi2O6,-3.341069330391666,0.07143266754001901,0.029399999999999003,True,FM,0.999416499999999,225
mp-1519397,KCeVWO6,-2.569032572725001,0.18796270914583602,0.0,True,FiM,1.8634931,216
mp-1519548,KCeZr2O6,-3.358587153724999,0.16414765564709502,0.14880000000000002,True,FM,1.0000019,225
mp-23193,KCl,-2.175260748125,0.0,5.027,False,NM,1.2e-06,225
mp-546633,KClO4,-1.043852747875,0.039353338750003006,5.1439,False,NM,1e-07,216
mp-1223559,KCrCdC6N6O,0.21766485298437402,0.672269144010416,0.0,True,FiM,0.999904599999999,216
mp-1009020,KCuO,-0.35897504408333203,0.8588312475000001,0.0,False,NM,0.0008929999999990001,216
mp-1211612,KDy3F10,-4.293645817303569,0.0,6.988300000000001,False,NM,0.0,225
mp-1516809,KDySnWO6,-2.4822156423916653,0.12799806258333002,2.522599999999999,False,NM,0.0,216
mp-18451,KEr3F10,-4.303242336589285,0.00010896991071400001,7.0649,False,NM,0.0,225
mp-1518275,KEu(SnO3)2,-2.212795339225001,0.21612788662500002,0.0,True,FM,5.9996406,225
mp-1185115,KEu3,0.19834278424999802,0.19834278424999802,0.0,True,FM,22.4098765,225
mp-1521352,KEuAlBiO6,-2.256885840225,0.250153735568178,0.0,True,FM,6.0239858,216
mp-1516907,KEuBiSbO6,-2.070406964225001,0.22588156550000002,0.0,True,FM,6.4024315,216
mp-1517635,KEuBiWO6,-2.254171829225,0.13929264275,0.731499999999999,True,FM,7.0,216
mp-1519677,KEuDyBiO6,-2.389455694391667,0.259391427749999,0.0,True,FM,5.98417,216
mp-1516648,KEuDySeO6,-2.432366820626042,0.25126345524305804,0.0,True,FM,6.9351068,216
mp-1520907,KEuDyWO6,-2.918474499391667,0.05972989616666301,0.3304,True,FM,7.0000002,216
mp-1517541,KEuFeBiO6,-1.8326626952250011,0.24169582025000103,0.0,True,FM,11.0150971,216
mp-1520482,KEuFeSnO6,-1.9967367857250011,0.22541175633333102,0.0,True,FM,10.0003819,216
mp-1519430,KEuHf2O6,-3.413686514224999,0.141651095937501,0.0,True,FM,5.9999998,225
mp-1521506,KEuHfFeO6,-2.595830415225001,0.18602814612499302,0.0,True,FM,10.0001713,216
mp-1518654,KEuHfSnO6,-2.8347343067249993,0.160893284145833,0.0,True,FM,5.9999999,216
mp-1521954,KEuHfTiO6,-3.2929148885583333,0.15027544174999702,0.0,True,FM,6.0007605,216
mp-1518234,KEuHfZrO6,-3.327640105225,0.16638326113749502,0.0,True,FM,6.000085,216
mp-1519582,KEuMgWO6,-2.604762749725,0.12035904324999401,0.0,True,FM,6.0003978,216
mp-1520623,KEuMnBiO6,-1.940842486018105,0.23657989716667202,0.0,True,FM,10.0,216
mp-1516881,KEuMnSnO6,-2.134458452518104,0.22285886276389102,0.0,True,FM,9.0049015,216
mp-1523183,KEuNb2O6,-3.029656579225001,0.0006931474999830001,0.0,True,FM,6.8868727,225
mp-1521902,KEuNbBiO6,-2.457719329225,0.24006945399999702,0.0,True,FM,6.7135301,216
mp-1518309,KEuNbInO6,-2.562364598891667,0.22350922750000002,0.0,True,FM,6.0002522,216
mp-1517639,KEuSbWO6,-2.236657977224999,0.17275823208333002,0.6482999999999991,True,FM,7.0000002,216
mp-1520309,KEuSnBiO6,-2.025577637725,0.22438261389166403,0.0,True,FM,6.7317165,216
mp-1522535,KEuSnWO6,-2.226803450725002,0.216596988749991,0.0,True,FM,5.9999982,216
mp-1516537,KEuYSbO6,-2.676401294225,0.197923412437492,0.0,True,FM,6.0000002,216
mp-1519341,KEuYWO6,-2.903951260225001,0.063406321979158,0.36110000000000003,True,FM,7.0000001,216
mp-1522904,KEuZr2O6,-3.242493447225001,0.189807868875,0.0,True,FM,6.0089124,225
mp-1516645,KEuZrBiO6,-2.559441229225,0.185718169312502,0.0,True,FM,6.8216452,216
mp-1522589,KEuZrFeO6,-2.519119702225,0.20133399166666502,0.0,True,FM,9.9966919,216
mp-1521555,KEuZrGeO6,-2.792900609724999,0.20094685150000102,0.0,True,FM,5.9980364,216
mp-1520642,KEuZrSnO6,-2.7534897687249993,0.180506395541661,0.0,True,FM,5.9999999,216
mp-463,KF,-2.924248431124999,0.0,5.949400000000001,False,NM,0.0,225
mp-1523222,KFeBiWO6,-1.7819215157250001,0.18455595099999603,0.0,True,FiM,4.1747848,216
mp-39273,KFeNi(CN)6,0.061707510849999,0.261547887277777,0.0,True,FM,3.001725,216
mp-631274,KFeP,0.704397532702381,1.1321233704583311,0.0,True,FM,3.774784,216
mp-631396,KFeTc2,1.422230740687499,1.422230740687499,0.0,True,FM,2.5628394,216
mp-1223610,KGaFe(CN)6,-0.131357898316666,0.15068166694444102,4.117199999999999,False,NM,0.0016944999999990002,216
mp-1519318,KGdHf2O6,-3.495075222725002,0.187786149124987,1.7960999999999991,True,FM,6.9799955,225
mp-1521336,KGdHfTiO6,-3.393466040058333,0.18223603624999402,0.8886000000000001,True,FM,6.9999997,216
mp-1520108,KGdNb2O6,-2.956507740724999,0.12964673077778602,0.0,True,FM,6.2799787,225
mp-1522249,KGdSnWO6,-2.442664692225,0.149892675333333,2.4188,True,FM,7.0000001,216
mp-1521399,KGdZrTiO6,-3.304156682058334,0.20067489193749502,0.826299999999999,True,FM,6.9999999,216
mp-1059264,KGe,0.7851033188750001,0.9872481070312501,0.0,False,NM,0.002556799999999,225
mp-24084,KH,-0.28957170124999904,0.0,3.433099999999999,False,NM,0.0,225
mp-1211501,KH8W(NF3)2,-1.587237034291666,0.053641508888889,2.7786,True,FM,2.9996101,225
mp-1520834,KHf2BiO6,-2.957856520725,0.148117029000001,0.861499999999999,False,NM,0.0,225
mp-1522604,KHfInWO6,-2.532502573391666,0.11716308533333102,0.5172999999999991,False,NM,0.0,216
mp-1522497,KHfMnSbO6,-2.428444011518103,0.20857684075000502,0.8812000000000001,True,FM,4.9999996,216
mp-1522209,KHfNbBiO6,-2.726267619725,0.18069164641666302,0.0,False,NM,0.000896,216
mp-1516503,KHfNbInO6,-2.775466161391666,0.18888555569444201,0.0,False,NM,4.4600000000000013e-05,216
mp-631296,KHfNi,1.9877720223333362,2.3322295289999992,0.0,False,NM,0.0043231,216
mp-1518906,KHfSnBiO6,-2.386427592225,0.16529494458666602,1.003299999999999,False,NM,0.0,216
mp-1522710,KHfSnSbO6,-2.450963136224999,0.141058670166671,2.857999999999999,False,NM,0.0,216
mp-1521210,KHfZrBiO6,-2.871659386724999,0.172999919200016,0.802,False,NM,0.0,216
mp-631525,KHg2B,0.88730901427083,1.109698061458331,0.0,False,NM,0.0161302,216
mp-1184994,KHg3,-0.21799815156249702,0.03440351166666,0.0,False,NM,0.0,225
mp-1211478,KHo3F10,-4.295575641232142,0.0,7.085,False,NM,0.0,225
mp-22898,KI,-1.669989291124999,0.0,3.8513,False,NM,0.0,225
mp-1522151,KIn(WO3)2,-1.863094942391666,0.197088702999993,0.0,True,FM,2.000001,225
mp-1185104,KIn3,-0.016859029312498,0.10931811162037001,0.0,False,NM,0.0004027,225
mp-1110931,KInBr3,-1.421698090783334,0.097790080499998,0.8797,False,NM,0.0,225
mp-1112170,KInCl3,-1.722800692783332,0.053826871466666,1.597099999999999,False,NM,0.0005564,225
mp-1112296,KInF3,-2.6988681597833333,0.075186752007941,2.3697,False,NM,0.0003782,225
mp-1112169,KInI3,-1.049556661783333,0.07668234500000001,0.0,False,NM,0.000984799999999,225
mp-1518996,KLa(SnO3)2,-2.424304004225,0.154020637499997,1.101,False,NM,0.0004162,225
mp-1518979,KLaAlBiO6,-2.470824054225001,0.176701765249999,0.0,False,NM,0.0,216
mp-1520142,KLaCeGeO6,-2.935823412725,0.195259601395832,2.0494,False,NM,0.0,216
mp-1523337,KLaCeHfO6,-3.4309477402249993,0.200120992699996,2.0577,False,NM,0.0,216
mp-1517811,KLaCeNiO6,-2.488349694224999,0.18298729775000003,1.3357,False,NM,0.0,216
mp-1516484,KLaCeSnO6,-2.883761187725,0.194773400687505,2.091,False,NM,0.0,216
mp-1516194,KLaCoWO6,-2.350055765225001,0.18042810425000103,0.0,True,FM,3.0,216
mp-1522686,KLaCuWO6,-2.2915268112250002,0.17314981750000102,0.0,True,FM,0.999999899999999,216
mp-1522772,KLaDyBiO6,-2.581344999391666,0.17519121337500101,1.9267999999999992,False,NM,1e-07,216
mp-1516307,KLaDyFeO6,-2.531797851391666,0.17732920444642503,0.28339999999999904,True,FiM,3.0000002,216
mp-1523024,KLaDyMnO6,-2.68275510118477,0.236081901085283,0.0,True,FiM,4.0000001,216
mp-1516195,KLaDyNbO6,-3.241734600391666,0.185023454749999,2.1462,False,NM,0.0,216
mp-1522429,KLaDySbO6,-2.890675486391666,0.109801907166665,2.394,False,NM,0.0,216
mp-1517640,KLaEuSbO6,-2.626976996725,0.23305783508333103,0.0,True,FM,6.0000002,216
mp-1523198,KLaEuWO6,-2.740509018725001,0.22739919554168603,0.042100000000000005,True,FM,6.9573465,216
mp-1517573,KLaFeBiO6,-2.047168834225,0.165586605750001,0.36139999999999906,True,FM,5.0000005,216
mp-1520811,KLaFeSbO6,-2.348553209225001,0.10247327949999901,1.6969,True,FM,5.0000008,216
mp-1517586,KLaFeSnO6,-2.217705008725,0.148366399270833,0.0,True,FM,4.0631266,216
mp-1523210,KLaFeWO6,-2.426766052225001,0.1456554655,0.0,True,FiM,4.0000006,216
mp-1516828,KLaGaBiO6,-2.164523605975001,0.18700864832142503,0.0,False,NM,3.799999999999998e-06,216
mp-1520259,KLaGdSbO6,-2.841838698224999,0.131583626999999,2.2343,True,FM,7.0,216
mp-1520574,KLaHf2O6,-3.616384047224998,0.085618662375001,2.501499999999999,False,NM,0.0,225
mp-1522697,KLaHfCrO6,-3.013004265224999,0.174731604541692,0.0,True,FM,2.0000005,216
mp-1518711,KLaHfFeO6,-2.812907237225,0.11686093952082902,0.0,True,FM,4.0000007,216
mp-1520833,KLaHfNbO6,-3.311095605225,0.10492907492501401,0.0,False,NM,0.0004458,216
mp-1519213,KLaHfSnO6,-3.042116660725,0.09990474974999201,1.9904000000000002,False,NM,0.0,216
mp-1516609,KLaHfTiO6,-3.503953114558334,0.095198121749999,2.3179,False,NM,0.0,216
mp-1516458,KLaInBiO6,-2.060617467891667,0.193174146875001,0.0,False,NM,0.0,216
mp-1516589,KLaInSbO6,-2.362764016891667,0.14356583049999902,1.148399999999999,False,NM,0.0,216
mp-1523297,KLaMgWO6,-2.820778298725,0.063001175500004,2.781499999999999,False,NM,0.0,216
mp-1520582,KLaMnWO6,-2.574597847018103,0.11186401199999901,1.1266,True,FM,4.9999998,216
mp-1518664,KLaNb2O6,-3.048935919224999,0.060076453611117006,0.0,False,NM,0.0019003,225
mp-1522297,KLaNbCrO6,-2.938738616224999,0.08563689625000401,2.0549,True,FM,3.0000005,216
mp-1522180,KLaNbFeO6,-2.765143900225,0.08738284200000301,1.711799999999999,True,FM,5.0000007,216
mp-1523298,KLaNbInO6,-2.771489885891667,0.15252357124999902,2.5501,False,NM,0.0,216
mp-1520198,KLaNbNiO6,-2.525545193224999,0.14645220941665302,0.0,True,FM,1.0000006,216
mp-1516686,KLaNbWO6,-2.729330924225,0.195309600749997,0.4343,True,FM,3.0,216
mp-1517441,KLaNiSbO6,-2.090490447225,0.17205231008333402,0.0,True,FM,1.0000006,216
mp-1517874,KLaNiWO6,-2.409012613225,0.11072208699999501,2.8449,True,FM,2.0000009,216
mp-1519950,KLaPrSbO6,-2.745553081391667,0.188646813833331,2.0094,False,NM,0.0,216
mp-1518226,KLaSmFeO6,-2.463537461725001,0.20981626600892703,0.28650000000000003,True,FM,3.0000005,216
mp-1523291,KLaSmSbO6,-2.816389820725001,0.14948540366666402,2.1983,False,NM,0.0,216
mp-1520975,KLaTbBiO6,-2.568616056891667,0.182203979312501,1.9221,False,NM,0.0,216
mp-1522529,KLaTbGeO6,-2.760022864391666,0.195728937930556,0.0,True,FM,1.0,216
mp-1522770,KLaTbNiO6,-2.295794629891666,0.21405494706250003,0.0,True,FiM,1.0000003,216
mp-1519655,KLaTbSbO6,-2.877274273891667,0.11701268702083001,2.3726000000000003,False,NM,0.0,216
mp-1521711,KLaTiNbO6,-3.239127471558333,0.045681297916663005,0.0,False,NM,4.2000000000000004e-05,216
mp-1520157,KLaTiSnO6,-2.915216722058333,0.120237745500005,2.674,False,NM,0.0,216
mp-1521904,KLaVWO6,-2.643391949225001,0.106236448125002,0.5106,True,FM,2.9999995,216
mp-1519740,KLaYBiO6,-2.562993415225,0.180749333312498,1.9898999999999991,False,NM,0.0,216
mp-1516868,KLaYNbO6,-3.227024238225,0.186940352687498,2.1338,False,NM,0.0,216
mp-1516392,KLaYSbO6,-2.873320821224999,0.11488992379166602,2.4149000000000003,False,NM,0.0,216
mp-1518811,KLaZnWO6,-2.506611432225,0.12768603050000002,2.773999999999999,False,NM,0.0,216
mp-1521888,KLaZr2O6,-3.438847828224999,0.131058805374992,2.2916,False,NM,0.0,225
mp-1517088,KLaZrCrO6,-2.930011246225,0.18971068545834002,0.0,True,FM,2.0000004,216
mp-1519849,KLaZrFeO6,-2.731194154225001,0.128716203083328,0.0,True,FM,4.0000004,216
mp-1522104,KLaZrNbO6,-3.238007250225,0.10789121866251701,0.0,False,NM,0.000184,216
mp-1517312,KLaZrSnO6,-2.958674492724999,0.120598905875004,2.5782,False,NM,0.0,216
mp-1520792,KLaZrTiO6,-3.418630780558334,0.107456922000009,2.2346999999999992,False,NM,0.0,216
mp-1520546,KLaZrVO6,-3.074095344225,0.163445347531244,0.0,True,FM,0.999999699999999,216
mp-1184961,KLi3,0.18399710424999902,0.18399710424999902,0.0,False,NM,0.0139476,225
mp-1211423,KLu3F10,-4.312424401946429,0.0,7.123200000000001,False,NM,0.0,225
mp-1184990,KMg3,0.231919711749999,0.231919711749999,0.0,False,NM,0.0019180999999990002,225
mp-1522301,KMnBiWO6,-1.899153369518102,0.17753417300000102,0.0,True,FM,4.9886104,216
mp-631254,KMnRu,1.515212659517239,1.543050177793102,0.0,True,FiM,3.9479653,216
mp-1211490,KMoH8(NF3)2,-1.633674532625,0.027777753888886002,3.263499999999999,True,FM,2.9999683999999993,225
mp-631329,KMoRu2,1.424262563416665,1.4588049559166651,0.0,False,NM,9.6e-05,216
mp-1058689,KN,1.134684234833332,1.282092457333333,0.0,True,FM,1.9996718,225
mp-1111019,KNa2AlF6,-3.2440640750008622,0.171453134249999,5.1973,False,NM,3.7900000000000006e-05,225
mp-1111018,KNa2AsF6,-2.564639682750862,0.21562130808333202,3.0404,False,NM,0.0005187,225
mp-863707,KNa2Bi,-0.517660647187501,0.0,0.0,False,NM,1e-07,225
mp-1111017,KNa2CoF6,-2.533209598000862,0.16011653824999802,3.224199999999999,False,NM,0.0,225
mp-1111015,KNa2CrF6,-2.9014785230008613,0.187973078249998,3.7636000000000003,True,FM,3.0000086,225
mp-1111014,KNa2FeF6,-2.696383594000862,0.22312567974999803,4.1152,True,FM,4.9998484,225
mp-1111013,KNa2GaF6,-2.869326611750861,0.16398859333333501,4.9498,False,NM,0.0,225
mp-1111012,KNa2IrF6,-2.321667562000861,0.175583710333333,1.497199999999999,False,NM,0.0002702,225
mp-1111011,KNa2MnF6,-2.721649505793965,0.23509700287499802,0.0,True,FM,4.0001179,225
mp-1111010,KNa2MoF6,-2.7345319030008612,0.17975312374999802,2.0919,True,FM,2.9999811999999992,225
mp-1111009,KNa2NbF6,-2.768514966000862,0.3011415565,0.0,True,FM,1.74824,225
mp-1111008,KNa2PdF6,-2.259310108000861,0.22479499999999503,0.0,True,FM,0.999686699999999,225
mp-1111007,KNa2RhF6,-2.414702676000861,0.147131512749997,2.23,False,NM,0.0,225
mp-1111006,KNa2RuF6,-2.396515021000862,0.191646488142859,0.0,True,FM,1.00453,225
mp-15724,KNa2Sb,-0.580791710937498,0.0,0.672099999999999,False,NM,0.0,225
mp-1111407,KNa2SbF6,-2.635762935000861,0.26748316725,2.654299999999999,False,NM,0.0007622999999990001,225
mp-1111005,KNa2ScF6,-3.340794464500861,0.200697976999995,5.0397,False,NM,0.0052828,225
mp-1111004,KNa2TaF6,-2.7521096497341953,0.399844166756667,0.0,True,FM,1.3180909,225
mp-1111003,KNa2TiF6,-3.087698711334195,0.193613519,0.0,True,FM,0.914477,225
mp-1223317,KNaMg2F6,-3.48803732686293,0.024383494250000002,6.286899999999999,False,NM,1.8700000000000004e-05,225
mp-1100427,KNaSb,-0.280357260000002,0.297216350000002,0.0,True,FM,0.9943791,216
mp-1100443,KNaSe,-1.058994623657686,0.181614890833335,2.0636,False,NM,0.0004276,216
mp-1522233,KNb2InO6,-2.572885525391666,0.103826109111103,0.0,False,NM,2.299999999999998e-06,225
mp-631304,KNb2Se,1.153555780101562,1.878684706625,0.0,False,NM,0.1488122,225
mp-2031335,KNbCl6,-1.598323398593748,6.143687500070882e-05,2.0182,False,NM,0.0,216
mp-1519724,KNd(SnO3)2,-2.354517174475,0.200423243749996,1.1914999999999991,False,NM,0.0,225
mp-1517680,KNdDySbO6,-2.814972496641665,0.16115134016666402,3.1776,False,NM,0.0,216
mp-1519089,KNdEuWO6,-2.821527173975,0.11594349020833,0.5143000000000001,True,FM,7.0,216
mp-1518702,KNdFeBiO6,-1.975620191475,0.19887533174999902,0.4222,True,FM,5.0000005,216
mp-1518022,KNdFeSnO6,-2.153088216974998,0.18959896752083502,0.0,True,FM,4.0725504,216
mp-1522310,KNdHf2O6,-3.542495173474999,0.12575682637499502,2.7817,False,NM,0.0,225
mp-1516381,KNdHfSnO6,-2.970457464975,0.146318711874998,3.3158,False,NM,0.0,216
mp-1516600,KNdHfTiO6,-3.436459322808333,0.128941203750002,2.2033,False,NM,0.0,216
mp-1521021,KNdHfZrO6,-3.451703276475,0.15751618112499502,2.6382,False,NM,0.0,216
mp-1522255,KNdInSbO6,-2.291316744141665,0.19065954649999803,1.2359,False,NM,0.0,216
mp-1518752,KNdNb2O6,-2.962679414474999,0.11689349044445001,0.0,False,NM,0.0035583,225
mp-1521418,KNdNbInO6,-2.694240541141666,0.19781398200000103,2.99,False,NM,0.0,216
mp-1522519,KNdSnWO6,-2.392013354975,0.189308509833328,2.254,False,NM,0.0,216
mp-1522241,KNdTiSnO6,-2.8491207853083322,0.16294945875000003,2.8321,False,NM,0.0,216
mp-1517590,KNdYSbO6,-2.796963465474999,0.166893722791665,3.140799999999999,False,NM,0.0,216
mp-1522387,KNdZr2O6,-3.362208780474999,0.172054142031242,2.5109999999999992,False,NM,0.0,225
mp-1520724,KNdZrFeO6,-2.663656030475,0.15859145322919202,0.0,True,FM,4.0000006,216
mp-1520012,KNdZrGeO6,-2.940322291975,0.152787586697362,3.2514,False,NM,0.0,216