material_id,formula,formation_energy,ehull,band_gap,is_magnetic,magnetic_ordering,total_magnetization,spacegroup
mp-1111360,Li2CuAsF6,-2.034172969583332,0.40540736525000104,0.6339,False,NM,0.027533199999999,225
mp-1111359,Li2CuAuF6,-1.849182262666666,0.34580743366666605,0.0,False,NM,0.000301999999999,225
mp-35841,Li2CuGe,-0.319751125416666,0.0,0.0,False,NM,2.499999999999999e-06,216
mp-1111113,Li2CuIrF6,-1.8714524266833332,0.37750486740000405,0.7389999999999991,False,NM,0.0015811999999990002,225
mp-1111143,Li2CuMoF6,-2.223153679333334,0.41552127199999506,0.0,True,FM,2.9977234,225
mp-1111560,Li2CuNiF6,-2.247561114333334,0.24305935349999902,0.0,True,FiM,0.9997206999999991,225
mp-15988,Li2CuSb,-0.48556522833333204,0.022338662499999003,0.4535,False,NM,0.0,216
mp-1111120,Li2CuSbCl6,-1.000031961083333,0.28851563500000105,0.6312000000000001,False,NM,0.0004549,225
mp-1111097,Li2CuSbF6,-2.174301420666666,0.46128403993749806,0.367,False,NM,3.7300000000000005e-05,225
mp-30591,Li2CuSn,-0.32586152291666604,0.0,0.0,False,NM,1e-07,216
mp-865580,Li2DyIn,-0.380604869583333,0.0,0.0,False,NM,6e-07,225
mp-865581,Li2DyTl,-0.309952047083335,0.0,0.0,False,NM,0.0,225
mp-865579,Li2ErIn,-0.35717130416666604,0.0,0.0,False,NM,0.0,225
mp-865573,Li2ErTl,-0.208945395000001,0.006769102777779001,0.0,False,NM,6.85e-05,225
mp-865067,Li2EuGe,-0.389706624166668,0.020356269895834,0.0,True,FM,7.0086168,225
mp-1184914,Li2EuIn,-0.233964614583333,0.021770667788462,0.0,True,FM,7.0213955,225
mp-867474,Li2EuSn,-0.48585430916666705,0.0,0.0,True,FM,7.0252224,225
mp-1111363,Li2FeAgF6,-2.234536440833333,0.353407980111108,1.5286,True,FM,5.000012,225
mp-20484,Li2FeCu(CN)6,0.13491195020833202,0.43178767437499505,0.0,True,FM,1.000823,225
mp-1111554,Li2FeHgF6,-2.177076831916667,0.448419600611108,0.0,True,FiM,4.1980334,225
mp-1222659,Li2GaAg,-0.30800429958333403,0.0,0.0,False,NM,2.8e-06,216
mp-30381,Li2GaAu,-0.552045800833333,0.0,0.0,False,NM,1e-06,216
mp-1111358,Li2GaCuF6,-2.395960645111111,0.32043913088888304,0.0,False,NM,0.0015838,225
mp-31441,Li2GaIr,-0.47674221583333304,0.0,0.0,False,NM,2.899999999999999e-06,216
mp-570528,Li2GaIr,-0.256075713333331,0.22066650250000203,0.0,False,NM,0.0021879,225
mp-3201,Li2GaPd,-0.556428800833332,0.0,0.0,False,NM,1.5e-06,216
mp-3726,Li2GaPt,-0.659772823541666,0.0,0.0,False,NM,4e-06,216
mp-2988,Li2GaRh,-0.487105041041666,0.0,0.0,False,NM,7.499999999999998e-06,216
mp-631316,Li2GaSb,-0.49841570213767905,0.051258123369565006,0.154199999999999,False,NM,0.0007231,225
mp-1222654,Li2GaSi,-0.08808983604166601,0.162117223616071,0.0,False,NM,0.012305799999999001,216
mp-865483,Li2GdIn,-0.355648443333333,0.0,0.0,True,FM,7.1674644,225
mp-865349,Li2GdTl,-0.287957388333332,0.0,0.0,True,FM,7.1463928,225
mp-2935,Li2GeAu,-0.485090115416667,0.0,0.0,False,NM,1e-07,216
mp-1222657,Li2GePd,-0.553581462916666,0.0,0.0,False,NM,3.8100000000000005e-05,216
mp-30080,Li2GePd,-0.40447549541666605,0.14910596750000002,0.0,False,NM,0.002322599999999,225
mp-1184951,Li2GePt,-0.43879802791666606,0.013332047857142001,0.0,False,NM,1e-06,225
mp-1078552,Li2H6Pt,-0.430497678425925,0.0,2.8838,False,NM,0.0,225
mp-865714,Li2HgAu,-0.47495524770833303,0.0,0.0,False,NM,2.11e-05,225
mp-1184970,Li2HgBi,-0.416244851458333,0.0023080610416670003,0.0,False,NM,3e-07,225
mp-16341,Li2HgGe,-0.273567536041668,0.052236980624999006,0.0,False,NM,2.1700000000000002e-05,225
mp-865731,Li2HgPd,-0.42043084479166803,0.0,0.0,False,NM,2.39e-05,225
mp-865622,Li2HoIn,-0.271620682083331,0.0,0.0,False,NM,5.4e-06,225
mp-865624,Li2HoTl,-0.300348039583333,0.0,0.0,False,NM,2.4e-06,225
mp-30344,Li2InAg,-0.33015537708333104,0.0,0.0,False,NM,1e-07,216
mp-30392,Li2InAu,-0.5411552658333321,0.0,0.0,False,NM,1.3e-06,216
mp-1184972,Li2InBi,-0.407213774583333,0.0260256635,0.000399999999999,False,NM,0.0,225
mp-1111123,Li2InCuCl6,-1.340914784333332,0.23680299166666302,0.064999999999999,False,NM,0.0497684,225
mp-1111100,Li2InCuF6,-2.304409231333333,0.36594429849999904,0.0,True,FM,0.0748426,225
mp-1184978,Li2InHg,-0.36224251020833204,0.008923137499998,0.0,False,NM,3.299999999999999e-06,225
mp-31443,Li2InIr,-0.34549607333333304,0.009607000749998,0.0,False,NM,1.5e-06,216
mp-567200,Li2InIr,-0.24238645833333103,0.11271661574999901,0.0,False,NM,2e-07,225
mp-1184985,Li2InPb,-0.259459083333331,0.0027709864473690004,0.0,False,NM,3e-07,225
mp-1210747,Li2InPb,-0.160476413333332,0.101753656447368,0.0,False,NM,0.0068404,216
mp-21029,Li2InPd,-0.520561748333333,0.0,0.0,False,NM,0.000129899999999,216
mp-21026,Li2InPt,-0.6413059658333321,0.0,0.0,False,NM,7e-06,216
mp-31442,Li2InRh,-0.41734936333333206,0.0,0.0,False,NM,2.1e-06,216
mp-1222655,Li2InSi,-0.034526865833333004,0.191011794494047,0.0,False,NM,0.0145997,216
mp-865737,Li2InSn,-0.304122734583331,0.0,0.0,False,NM,0.0,225
mp-866193,Li2LaIn,-0.41194741708333205,0.0,0.11169999999999901,False,NM,5e-07,225
mp-861893,Li2LaPb,-0.37902647041666804,0.0,0.0,False,NM,0.0025453,225
mp-861894,Li2LaSn,-0.49024710416666606,0.0,0.0,False,NM,0.0002117,225
mp-866195,Li2LaTl,-0.264985338750002,0.0,0.0,False,NM,3.4300000000000014e-05,225
mp-1184968,Li2LuIn,-0.32971700999999903,0.001323564464286,9.999999999976698e-05,False,NM,4.9000000000000005e-06,225
mp-1222653,Li2MgAg,-0.174071358333332,0.0021566275,0.0,False,NM,0.0026563,216
mp-1222650,Li2MgAu,-0.431082720416665,0.002962325000001,0.0,False,NM,3.4900000000000015e-05,216
mp-1222662,Li2MgBi,-0.268970265416667,0.144584788124999,0.0,False,NM,0.0269906,216
mp-1222648,Li2MgCd,-0.16571732291666602,0.0,0.0,False,NM,6.690000000000001e-05,216
mp-866194,Li2MgCd,-0.151988070416666,0.0137292525,0.0,False,NM,2.2e-06,225
mp-1222647,Li2MgGa,-0.229666107291666,0.0,0.0,False,NM,5.5e-06,216
mp-1222651,Li2MgGe,-0.32319868166666604,0.0,0.0,False,NM,1.1e-06,216
mp-973325,Li2MgGe,-0.271959936666666,0.051238745,0.0,False,NM,0.0002846,225
mp-1222646,Li2MgHg,-0.26968002354166704,0.0,0.0,False,NM,1e-07,216
mp-973343,Li2MgHg,-0.24736783854166802,0.022312184999999003,0.0,False,NM,0.0004829,225
mp-12128,Li2MgIn,-0.216344614583332,0.0,0.0,False,NM,5e-07,225
mp-1222652,Li2MgPb,-0.256097672916665,0.0,0.0,False,NM,8e-07,216
mp-30758,Li2MgPb,-0.22759561291666802,0.028502059999997,0.0,False,NM,1.0500000000000001e-05,225
mp-1222660,Li2MgSb,-0.36143114541666604,0.213575301874999,0.0,False,NM,0.0098584,216
mp-1018009,Li2MgSi,-0.210014079166666,0.010541068124999001,0.143299999999999,False,NM,0.0,216
mp-569174,Li2MgSi,-0.195703806041666,0.024851341249999003,0.0,False,NM,0.0014919999999990002,225
mp-1222615,Li2MgSn,-0.341448874166666,0.0,0.047499999999999,False,NM,9e-07,216
mp-865935,Li2MgSn,-0.304543381666667,0.036905492499998,0.0,False,NM,1.16e-05,225
mp-1222613,Li2MgTl,-0.202913963750001,0.0,0.0,False,NM,1.3200000000000002e-05,216
mp-2987,Li2MgTl,-0.17824431875000002,0.024669645000001003,0.0,False,NM,1.6e-06,225
mp-1222610,Li2MgZn,-0.123768297916666,0.011276581249999001,0.0,False,NM,6.099999999999997e-06,216
mp-1111362,Li2MnAgF6,-2.307116700626436,0.335812251000001,0.0,True,FM,3.9999925,225
mp-1111263,Li2MnCuF6,-2.44417678745977,0.25522375225000005,0.0,True,FiM,3.9995244,225
mp-1062345,Li2N,-0.21441274777777702,0.221975358333333,0.0,True,FM,1.00016,225
mp-866178,Li2NdAl,-0.22723082770833203,0.00045889854166600004,0.0,False,NM,3e-07,225
mp-1184986,Li2NdGa,-0.329232229791664,0.017334358333334,0.134999999999999,False,NM,2.4100000000000003e-05,225
mp-866181,Li2NdIn,-0.41112519270833303,0.0,0.0,False,NM,0.0,225
mp-1184981,Li2NdPb,-0.34729457354166504,0.020309707397059,0.0,False,NM,0.0009391,225
mp-866179,Li2NdTl,-0.258893231875,0.0,0.0,False,NM,8e-07,225
mp-1111146,Li2NiAgF6,-2.021007083083335,0.31859104599999905,0.0,True,FiM,1.0003741,225
mp-1960,Li2O,-2.061597913888889,0.0,4.8986,False,NM,0.0,225
mp-1184967,Li2PbAu,-0.38585482416666506,0.021198090000000003,0.0,False,NM,0.0005298,225
mp-30403,Li2PbAu,-0.402785434166665,0.004267480000001001,0.0,False,NM,8.7e-06,216
mp-866176,Li2PdAu,-0.512904950833331,0.0,0.0,False,NM,0.0,225
mp-1222614,Li2PdPb,-0.43655358666666605,0.0,0.0,False,NM,2e-07,216
mp-861651,Li2PdPb,-0.360940101666665,0.07561348500000101,0.0,False,NM,1.1e-06,225
mp-862929,Li2PmAl,-0.229276615208334,0.0,0.0,False,NM,4e-07,225
mp-983460,Li2PmGa,-0.334400625208333,0.0,0.163499999999999,False,NM,8.7e-06,225
mp-983425,Li2PmGe,-0.376140887291667,0.005180114999999001,0.0,False,NM,7.599999999999997e-06,225
mp-862930,Li2PmIn,-0.41052546520833305,0.0,0.0,False,NM,3e-07,225
mp-862948,Li2PmPb,-0.338030243541664,0.0,0.0,False,NM,0.00018549999999900002,225
mp-862946,Li2PmSi,-0.284081806041667,0.0028136074053000002,0.0,False,NM,1.2e-06,225
mp-862935,Li2PmSn,-0.459683909791666,0.0,0.0,False,NM,8.6e-05,225
mp-862934,Li2PmTl,-0.342283045208333,0.0,0.0,False,NM,0.0,225
mp-861657,Li2PrAl,-0.221982791249999,0.0,0.0,False,NM,6e-07,225
mp-1185017,Li2PrGa,-0.32336563374999905,0.013295580416667,0.0693,False,NM,2e-06,225
mp-866196,Li2PrIn,-0.408762071249999,0.0,0.0,False,NM,1e-07,225
mp-866197,Li2PrPb,-0.35225843708333204,0.006741105142156,0.0,False,NM,2.1e-06,225
mp-865715,Li2PrTl,-0.34116255624999703,0.0,0.0,False,NM,2.899999999999999e-06,225
mp-1153,Li2S,-1.503453288055556,0.0,3.3862,False,NM,0.0,225
mp-1222624,Li2SO4,-2.043634117738095,0.267635078928572,3.9196,False,NM,6.330000000000002e-05,216
mp-30404,Li2SbAu,-0.600052838333333,0.0,0.0,False,NM,4e-07,216
mp-10180,Li2SbPd,-0.713076248333331,0.0,0.0,False,NM,1e-07,216
mp-3158,Li2SbPt,-0.7628624933333331,0.0,0.0,False,NM,1e-07,216
mp-1111262,Li2ScCuCl6,-1.5749229983333302,0.27310356150000104,1.856599999999999,False,NM,0.001031899999999,225
mp-1111353,Li2ScCuF6,-2.8582985923888797,0.37778508800000105,0.0,False,NM,0.0003032,225
mp-1184974,Li2ScIn,-0.328608302083333,0.013468868214285001,0.071799999999999,False,NM,1.15e-05,225
mp-2286,Li2Se,-1.451676987465277,0.0,2.9746,False,NM,0.0,225
mp-1222602,Li2SiAu,-0.45658788666666605,0.0,0.0,False,NM,0.0002845,216
mp-1184988,Li2SmAl,-0.21740801854166603,0.017406854895833,0.11039999999999901,False,NM,0.0001363,225
mp-865882,Li2SmIn,-0.40434758083333305,0.0,0.0,False,NM,8e-07,225
mp-866200,Li2SmTl,-0.25029464625000003,0.0,0.0,False,NM,5e-07,225
mp-30405,Li2SnAu,-0.527563775416666,0.0,0.0,False,NM,2e-07,216
mp-12094,Li2SnGe,-0.154836549166666,0.148497320624999,0.0,False,NM,4.68e-05,216
mp-975578,Li2SnHg,-0.338322271041668,0.010015364999999,0.0,False,NM,1e-07,225
mp-1001914,Li2SnIr,-0.233743280416666,0.17969385749999803,0.0,False,NM,0.0013625,225
mp-1222612,Li2SnIr,-0.41343713791666403,0.0,0.0,False,NM,1e-06,216
mp-1184991,Li2SnPb,-0.297700557916666,0.0011723175000000001,0.0,False,NM,6.3e-06,225
mp-1206680,Li2SnPd,-0.466714865416665,0.11963711500000002,0.0,False,NM,0.0005365,225
mp-1222608,Li2SnPd,-0.586351980416666,0.0,0.0,False,NM,6.799999999999997e-06,216
mp-1222607,Li2SnPt,-0.6521044904166641,0.0,0.0,False,NM,1e-06,216
mp-866202,Li2SnPt,-0.47889189791666403,0.1732125925,0.0,False,NM,4e-07,225
mp-2530,Li2Te,-1.178086924444443,0.0,2.4914,False,NM,0.0,225
mp-1207195,Li2TiBi,-0.043698443472219003,0.41828862472222206,0.0,True,FM,3.0011005,225
mp-1222611,Li2TlAg,-0.23642475208333302,0.0,0.0,False,NM,1e-07,216
mp-865666,Li2TlAg,-0.22788406208333703,0.008540689999978,0.0,False,NM,4.4e-06,225
mp-30406,Li2TlAu,-0.380884878333333,0.028401330000001,0.0,False,NM,4.1200000000000005e-05,216
mp-865711,Li2TlAu,-0.409286208333334,0.0,0.0,False,NM,2.6e-06,225
mp-865713,Li2TlBi,-0.424853982083334,0.0045202833333270005,0.22930000000000003,False,NM,0.0,225
mp-1184955,Li2TlCd,-0.267449943333332,0.007576318750011001,0.0,False,NM,1e-07,225
mp-1222604,Li2TlCd,-0.273325105833333,0.0017011562500100002,0.0,False,NM,1e-06,216
mp-1184956,Li2TlHg,-0.32448249770833404,0.009609435000001,0.0,False,NM,2.1e-06,225
mp-1184958,Li2TlIn,-0.30367556583333,0.010182938125002,0.0,False,NM,1e-07,225
mp-975609,Li2TlPb,-0.24842716999999903,9.979750000077561e-05,0.0,False,NM,1.1e-06,225
mp-865863,Li2TlPd,-0.36907366083333304,0.0,0.0,False,NM,4e-07,225
mp-975608,Li2TlPt,-0.434467043333331,0.020782237500000002,0.0,False,NM,0.0009704,225
mp-1184973,Li2TlSb,-0.48171367833333506,0.027927600119042002,0.6976000000000001,False,NM,0.0,225
mp-975780,Li2TlSn,-0.28046128625,0.006927130833332001,0.0,False,NM,4.599999999999997e-06,225
mp-865860,Li2TmIn,-0.35039054833333305,0.0,0.0,False,NM,1e-07,225
mp-975786,Li2TmTl,-0.261420439046297,0.016064079953704,0.0,False,NM,0.0003625,225
mp-1185126,Li2YAl,-0.213556509722222,0.021986638194444002,0.0001,False,NM,3.69e-05,225
mp-1185233,Li2YIn,-0.39409787583333306,0.0,0.047899999999999006,False,NM,4.7e-06,225
mp-865867,Li2YTl,-0.32408084333333403,0.0,0.0,False,NM,1.25e-05,225
mp-865735,Li2YbGe,-0.32361174958333305,0.28349551583333504,0.0,False,NM,4e-07,225
mp-1185190,Li2YbIn,-0.344111319583335,0.0,0.0,False,NM,4.4e-06,225
mp-866180,Li2YbPb,-0.286371997083332,0.14002442650000102,0.0,False,NM,6.31e-05,225
mp-866191,Li2YbSi,-0.253610598333333,0.191856686166666,0.0884,False,NM,1.699999999999999e-06,225
mp-866192,Li2YbSn,-0.394051417083336,0.085047740749999,0.0,False,NM,2.34e-05,225
mp-1185186,Li2YbTl,-0.27420569458333305,0.0,0.0,False,NM,0.0,225
mp-865871,Li2ZnAu,-0.38858388458333304,0.014122962019229001,0.0,False,NM,2.1200000000000004e-05,225
mp-12411,Li2ZnGe,-0.322400300416666,0.017217836249999,0.0,False,NM,0.0,216
mp-567389,Li2ZnGe,-0.23801389791666602,0.101604238749999,0.0,False,NM,0.002261,225
mp-1210750,Li2ZnPb,-0.21970393666666602,0.040884049166667005,0.0,False,NM,0.0002872,216
mp-1222606,Li2ZnSb,-0.35193754071180705,0.193468926249999,0.0,False,NM,0.006509699999999,216
mp-11490,Li2ZnSn,-0.27048706041666604,0.0471105075,0.0,False,NM,3.799999999999998e-06,225
mp-1222600,Li2ZnSn,-0.31759756791666605,0.0,0.0,False,NM,5e-07,216
mp-1206664,Li2ZrAl,-0.047821572374999004,0.22595314812500003,0.0,False,NM,0.010003,216
mp-865875,Li3Ag,-0.12234537624999901,0.0,0.0,False,NM,4.1e-06,225
mp-1111291,Li3AlF6,-3.306112348,0.181149862833331,6.505599999999999,False,NM,0.0,225
mp-1111074,Li3AsF6,-2.507031614749999,0.298083288249999,4.113700000000001,False,NM,0.000116099999999,225
mp-11247,Li3Au,-0.403062934999999,0.0,0.0,False,NM,2.5300000000000005e-05,225
mp-1110580,Li3AuF6,-2.108157918,0.369215755999999,0.408699999999999,True,FM,2.0000539,225
mp-23222,Li3Bi,-0.6278293687499991,0.0,0.34289999999999904,False,NM,0.0,225
mp-976060,Li3C,0.426453397152777,0.476393675069444,0.0,False,NM,0.0050205,225
mp-975929,Li3Ca,0.046671715,0.061178348958333004,0.0,False,NM,1.0800000000000002e-05,225
mp-867343,Li3Cd,-0.17537563749999902,0.006006667500000001,0.0,False,NM,3.1e-06,225
mp-1185231,Li3Ce,0.33363413624999905,0.33363413624999905,0.0,True,FM,2.593102,225
mp-1111290,Li3CoF6,-2.593125365999999,0.18849861250000002,2.9404,False,NM,0.000346,225
mp-1185185,Li3Cr,0.406402214999999,0.406402214999999,0.0,True,FM,4.5973228,225
mp-1111688,Li3CrF6,-2.950934669999999,0.20181595100000102,4.3567,True,FM,2.9998603999999993,225
mp-1185222,Li3Eu,0.1097012675,0.1097012675,0.0,True,FM,7.7867915,225
mp-976023,Li3Ga,-0.2307619475,0.021047610833333,0.0,False,NM,4.5e-06,225
mp-1111076,Li3GaF6,-2.900951809166667,0.19345235633332902,5.7707,False,NM,0.0001848,225
mp-867342,Li3Ge,-0.32736726875000005,0.008542325,0.0,False,NM,0.0004123,225
mp-1646,Li3Hg,-0.293955131875,0.0012975900000000002,0.0,False,NM,1.22e-05,225
mp-867226,Li3In,-0.299054724999999,0.005150574464284001,0.0,False,NM,1.4700000000000002e-05,225
mp-1111288,Li3InCl6,-1.640453503666666,0.23189830400000003,3.1326,False,NM,0.00019979999999900002,225
mp-1110579,Li3InF6,-2.779155728500001,0.256732369499999,4.8656,False,NM,0.0001419,225
mp-1111071,Li3IrF6,-2.324233675024999,0.23243878860000103,2.1887,False,NM,0.000258,225
mp-1185192,Li3La,0.201262778749999,0.201262778749999,0.0,False,NM,0.0016104,225
mp-976256,Li3Mg,-0.01611063125,0.009995805416666,0.0,False,NM,4.88e-05,225
mp-1111072,Li3MnF6,-2.775038926793103,0.25530884000000503,0.0,True,FM,3.9998649,225
mp-1111287,Li3MoF6,-2.687778699,0.2479111055,2.9152,True,FM,2.9999965,225
mp-1185184,Li3Nb,0.6990955125,0.6990955125,0.0,False,NM,0.153784299999999,225
mp-1110578,Li3NbF6,-2.750740539599999,0.36665833506666,0.0,True,FM,2.0063991,225
mp-976264,Li3Nd,0.19684769312500003,0.19684769312500003,0.0,False,NM,0.010886,225
mp-1111686,Li3NiF6,-2.4970728970000042,0.21450139749999902,0.0,True,FM,1.000631,225
mp-30760,Li3Pb,-0.32159767249999904,0.001960421000001,0.0,False,NM,0.0,225
mp-11489,Li3Pd,-0.27081692499999904,0.007513318035715001,0.0,False,NM,3.399999999999998e-06,225
mp-1111069,Li3PdF6,-2.259064185624999,0.251934462999999,0.0,True,FM,0.999558699999999,225
mp-1185191,Li3Pm,0.203587223125,0.203587223125,0.0,False,NM,4.58e-05,225
mp-976321,Li3Pr,0.18982213125000003,0.18982213125000003,0.0,False,NM,0.0203128,225
mp-867227,Li3Pt,-0.433075907499999,0.024064876785715002,0.0,False,NM,3e-07,225
mp-977299,Li3Pu,0.40324303000000206,0.40324303000000206,0.0,True,FM,8.1549682,225
mp-1185235,Li3Rh,-0.021033382499999,0.07196978666666701,0.04939999999999901,False,NM,0.0,225
mp-1111070,Li3RhF6,-2.452329865999999,0.185214987500006,1.8808,False,NM,6.780000000000002e-05,225
mp-1111685,Li3RuF6,-2.418111476374999,0.266538272625,0.0,True,FM,0.999097799999999,225
mp-2074,Li3Sb,-0.744135469999999,0.0079774975,0.707399999999999,False,NM,0.0,225
mp-1111149,Li3SbCl6,-1.2996153805000001,0.29358938849999905,2.8486000000000002,False,NM,4e-06,225
mp-1110577,Li3SbF6,-2.635886814,0.340602111875001,3.3865,False,NM,6.42e-05,225
mp-1111284,Li3ScCl6,-1.9084364247499992,0.24424730799999902,3.780599999999999,False,NM,2e-06,225
mp-1111282,Li3ScF6,-3.36327611233333,0.238894343,5.9413,False,NM,2.36e-05,225
mp-977286,Li3Sm,0.208808691249998,0.208808691249998,0.0,False,NM,0.003494499999999,225
mp-1185265,Li3Sn,-0.385153931249999,0.0,0.0,False,NM,4.9000000000000005e-06,225
mp-1111281,Li3TaF6,-2.689071150640001,0.500173144200001,0.0,True,FM,1.768472399999999,225
mp-976334,Li3Tc,0.6144726837499991,0.6144726837499991,0.0,True,FM,2.0521192,225
mp-977239,Li3Th,0.416199807499999,0.416199807499999,0.0,False,NM,0.030518499999999,225
mp-1111280,Li3TiF6,-3.132109784333333,0.23456269600000101,0.0,True,FM,1.000205,225
mp-7396,Li3Tl,-0.271427114999999,0.0,0.0,False,NM,2.299999999999998e-06,225
mp-1110576,Li3TlF6,-2.43361836425,0.269439218250001,3.3885,False,NM,7.05e-05,225
mp-1111067,Li3VF6,-2.917081364,0.294562624499978,0.0,True,FM,1.999758,225
mp-1110575,Li3YF6,-3.346384613500001,0.362383062499999,5.3213,False,NM,0.0008640999999990001,225
mp-1185286,Li3Yb,0.24736499624999903,0.24736499624999903,0.0,False,NM,3.19e-05,225
mp-976412,Li3Zn,-0.08239870874999901,0.027654085416666002,0.0,False,NM,5.799999999999999e-06,225
mp-1185295,Li3Zr,0.443144002499999,0.443144002499999,0.0,True,FM,0.5883406,225
mp-759877,Li4CuF7,-2.665654211527782,0.038302260694439004,0.8628,True,FM,1.999541799999999,216
mp-759476,Li4MnF7,-3.011340232188697,0.041409222500001,0.0,True,FM,3.9999821,216
mp-753113,Li4VF7,-3.191208534027778,0.012621105416663001,0.0,True,FM,1.9999999,216
mp-756794,Li5V4O8,-2.297034622156863,0.09700367852941301,0.0,True,FM,9.0000013,216
mp-27508,Li6Br3N,-1.234039098,0.061509077999999,2.085699999999999,False,NM,0.0002093,225
mp-505391,Li6CoCl8,-1.778330867000001,0.030867146666667,0.0,True,FM,3.0030571,225
mp-753139,Li6CuF8,-2.877715247333333,0.036446985333333,0.0,True,FM,0.999914899999999,225
mp-28828,Li6FeCl8,-1.903313034666666,0.038830568999999,0.6532999999999991,True,FM,4.0004681,225
mp-29008,Li6MgBr8,-1.819567325,0.019889662666665,4.6843,False,NM,0.0,225
mp-3346449,Li6MgCl8,-2.037652429833333,0.0006030524999990001,6.006,False,NM,0.0,225
mp-759844,Li6MnF8,-3.056144775862068,0.06905496283333501,4.5324,True,FM,4.9999998,225
mp-1211124,Li6NiCl8,-1.8174967759999991,0.0,1.3726,True,FM,1.9999999,225
mp-1103940,Li6PBrO5,-2.453378781895604,0.0,5.1094,False,NM,0.0003012,216
mp-1104386,Li6PClO5,-2.492681378434066,0.006714863269232,5.2407,False,NM,4.1700000000000004e-05,216
mp-985591,Li6PS5Br,-1.306132808241757,0.050508101730768,2.1394,False,NM,9e-06,216
mp-985592,Li6PS5Cl,-1.320599137087911,0.08294630153846101,2.2955,False,NM,0.00025,216
mp-985582,Li6PS5I,-1.274077549780219,0.018937180192306002,2.1923,False,NM,0.0010507,216