material_id,formula,formation_energy,ehull,band_gap,is_magnetic,magnetic_ordering,total_magnetization,spacegroup
mp-1518310,SrEuMgWO6,-2.952167827000001,0.015446987999993,0.35660000000000003,True,FM,7.0,216
mp-1518336,SrEuNbBiO6,-2.7037218765,0.24639308599999202,0.7944999999999991,True,FM,6.9999998,216
mp-1518389,SrEuNbCrO6,-3.0703298965,0.009353470525001,0.0,True,FM,9.919076,216
mp-1519206,SrEuNbFeO6,-2.905343569500001,0.067454068000007,0.0,True,FM,11.7343265,216
mp-1518126,SrEuNbGaO6,-3.03261825225,0.032674078722216005,0.30710000000000004,True,FM,6.9999999,216
mp-1521910,SrEuNbVO6,-3.093793812500001,0.010710734020829001,0.0,True,FM,8.9999884,216
mp-1518537,SrEuNbWO6,-2.8453503705000003,0.142808440181829,0.0,True,FM,9.9857463,216
mp-1519106,SrEuNiBiO6,-2.0075490435,0.231917465549994,0.0,True,FM,8.0000005,216
mp-1516349,SrEuNiWO6,-2.5385660235,0.09197194024999401,0.47330000000000005,True,FM,9.0000007,216
mp-1187171,SrEuPt2,-0.787334228749999,0.06596155118055601,0.0,True,FM,6.904311199999999,225
mp-1521767,SrEuSnSbO6,-2.445501523,0.18243078928409,0.0,True,FM,6.8116817,216
mp-1519580,SrEuTiInO6,-2.9113597855,0.224281346499999,0.0,True,FM,5.9939373,216
mp-1519324,SrEuTiNbO6,-3.360843272833334,0.012540414964298,0.0,True,FM,6.618322,216
mp-1517075,SrEuTiSnO6,-3.049584787333335,0.066933555812498,0.279,True,FM,7.0042776,216
mp-1187174,SrEuTl2,-0.5306997787499981,0.0,0.0,True,FM,7.1301991,225
mp-1518110,SrEuYCoO6,-2.6008781575000013,0.24879283561491503,0.0,True,FiM,4.9999955,216
mp-1519529,SrEuYCrO6,-2.8941332185,0.277778284906245,0.0,True,FM,8.0000002,216
mp-1522081,SrEuYFeO6,-2.7014353865,0.25981718193749703,0.0,True,FM,10.0,216
mp-1521037,SrEuYNbO6,-3.3628204965000013,0.09478800790442801,0.3205,True,FM,7.0000002,216
mp-1520937,SrEuYSbO6,-3.008631091500001,0.126797790187502,0.346199999999999,True,FM,7.0000002,216
mp-1522166,SrEuYWO6,-2.993868995500001,0.189429925333326,0.0,True,FM,8.0000002,216
mp-1517942,SrEuZnBiO6,-2.1206071635,0.22917511574998603,0.0,True,FM,6.1131437,216
mp-1519428,SrEuZnWO6,-2.637237054500001,0.068640306999997,0.49570000000000003,True,FM,7.0000002,216
mp-1518073,SrEuZrCrO6,-3.131043038499998,0.153241386275004,0.0,True,FM,9.0000006,216
mp-1518560,SrEuZrGeO6,-3.132023687999999,0.075989577187499,0.7382999999999991,True,FM,7.0,216
mp-1521062,SrEuZrMnO6,-3.066992060293105,0.12861045409374902,0.0,True,FM,10.0000011,216
mp-1518145,SrEuZrSbO6,-2.905880922499999,0.23496045626137402,0.0,True,FM,6.8993185,216
mp-1519044,SrEuZrSnO6,-3.091793732,0.08109109865000201,0.6193000000000001,True,FM,6.9999998,216
mp-1518697,SrEuZrTiO6,-3.555401641833333,0.054688759249999004,0.0064999999999990005,True,FM,7.0000291,216
mp-1519238,SrEuZrVO6,-3.223372548500001,0.10238692831249001,0.0,True,FM,7.9999999,216
mp-981,SrF2,-4.20881278,0.0,6.7674,False,NM,0.0,225
mp-1520229,SrFeSnWO6,-2.096364521499999,0.18331637450000102,0.0,True,FiM,4.0000004,216
mp-1218287,SrGd(CoO3)2,-1.578925825999999,0.727270432741934,0.0,True,FM,7.213728899999999,225
mp-1218267,SrGdFeCoO6,-2.300909812999999,0.110121083163042,0.0,True,FM,13.0000001,216
mp-1523038,SrGdZrTiO6,-3.481155856333333,0.17181973199998501,0.0,True,FiM,6.1758226,216
mp-978856,SrH3,-0.145116244375,0.340568440624999,0.0,False,NM,0.0019079,225
mp-631313,SrHf2Mo,0.856987337708325,0.921994609583329,0.0,True,FiM,0.6605707,216
mp-1522175,SrHfInSbO6,-2.650383332666666,0.19913845951136003,0.867,False,NM,0.0,216
mp-1519782,SrHfNbInO6,-3.064545019666666,0.12277119563889101,0.5890000000000001,False,NM,0.0,216
mp-1519878,SrHfNbSnO6,-2.9855093475,0.19860482575000302,0.0,True,FM,0.3746114,216
mp-631392,SrHfRe2,0.8307348362499981,1.126260109375005,0.0,False,NM,0.001325,216
mp-1518608,SrHfTiInO6,-3.124391775,0.18972724769444502,0.0,False,NM,2.1000000000000002e-05,216
mp-1520298,SrHfTiSnO6,-3.193491268833334,0.114223669750002,2.2211,False,NM,0.0003201,216
mp-1520913,SrHfVSnO6,-2.8422859705,0.17692747287499802,0.0,True,FM,0.9999998,216
mp-1521324,SrHfZrSnO6,-3.230088919499998,0.14611934950000202,3.149,False,NM,0.0,216
mp-1187216,SrHg2Pb,-0.40378177625000505,0.0,0.0,False,NM,1e-06,225
mp-1520202,SrInGaWO6,-2.2083153714166652,0.19683018981251002,0.9516999999999991,False,NM,0.0,216
mp-867173,SrInHg2,-0.403129535416669,0.0,0.0,False,NM,2.8e-06,225
mp-1218224,SrLa(CoO3)2,-2.1937484525,0.107577088116934,0.0,True,FM,4.5379932,225
mp-1521441,SrLaCrSnO6,-2.806364175999999,0.110626814999999,2.027599999999999,True,FM,3.0000005,216
mp-1521837,SrLaDySnO6,-3.100261477166666,0.190087641812501,1.3247,False,NM,0.0,216
mp-1519929,SrLaEuNbO6,-3.240542123000001,0.19309510739062202,0.6536000000000001,True,FM,6.9999999,216
mp-1518260,SrLaEuSbO6,-2.91486769,0.19161634811666,0.5564,True,FM,6.9999998,216
mp-1518769,SrLaFeBiO6,-2.3429883165,0.21378390300000003,0.0,True,FM,4.1312078,216
mp-1218163,SrLaFeCoO6,-2.402628922500001,0.023743852677414003,0.0,True,FM,11.999991,216
mp-1187186,SrLaHg2,-0.5234006925000071,0.0,0.0,False,NM,0.0002417,225
mp-40761,SrLaMnCoO6,-2.483282500293104,0.253615519713709,0.0,True,FM,6.9948905,216
mp-41918,SrLaNbZnO6,-3.025107013499999,0.125794154416668,2.372899999999999,False,NM,2.32e-05,216
mp-1187188,SrLaPt2,-1.030214727812499,0.048759100937502006,0.0,False,NM,0.0015228,225
mp-1218145,SrLaTaNiO6,-3.084019534233333,0.06050110527779701,2.6746,True,AFM,0.0,216
mp-1218147,SrLaTiFeO6,-3.157936793833333,0.044357253999999006,1.7674,True,AFM,0.0,216
mp-1218148,SrLaVFeO6,-2.849536051000001,0.054456613333337005,1.2001,True,AFM,0.000293199999999,216
mp-631340,SrLaZr2,0.6045300720833311,0.6045300720833311,0.0,False,NM,0.0018164,225
mp-1187184,SrLi2In,-0.22610646083333202,0.025043853952206003,0.0,False,NM,0.0034267,225
mp-867174,SrLi2Pb,-0.39514992666666504,0.0,0.0,False,NM,6.3e-06,225
mp-867171,SrLi2Sn,-0.47317474291666606,0.0,0.0,False,NM,7.8e-06,225
mp-1100426,SrLiSb,-0.43240461777777706,0.5863795350000001,0.9661999999999991,False,NM,9.810000000000001e-05,216
mp-1522292,SrLiSnSbO6,-2.217492775833333,0.183074923500001,0.113999999999999,False,NM,0.0,216
mp-1094298,SrMg,0.22417370583333102,0.291794655833333,0.0,False,NM,0.0040757,225
mp-1094336,SrMg,0.6963322108333311,0.7639531608333331,0.0,False,NM,0.2148265,216
mp-971944,SrMg3,-6.6786249999673e-05,0.07686654590909,0.0,False,NM,0.0,225
mp-1187185,SrMgHg2,-0.377375292500003,0.005129312249998,0.0,False,NM,4e-07,225
mp-1522468,SrMgInWO6,-2.4284691051666663,0.17636941750000001,0.0,False,NM,1.2800000000000001e-05,216
mp-962059,SrMgSi,0.513711171666666,0.8722445658333331,0.0,False,NM,0.0015937,216
mp-962075,SrMgSn,0.154483226666667,0.7064050658333351,0.0,False,NM,0.0508656,216
mp-1520140,SrMgSnWO6,-2.502269565,0.08613016797059901,2.887199999999999,False,NM,0.0,216
mp-867172,SrMgTl2,-0.271429610416669,0.0,0.0,False,NM,2e-07,225
mp-631376,SrMn2Si,0.506373645593868,0.8228455961111111,0.0,True,FiM,0.6068532,216
mp-1522574,SrMnInWO6,-2.19414132845977,0.20274125883333302,0.0,True,FM,4.4478912,216
mp-1522554,SrMnNbBiO6,-2.421252679793105,0.21089369800000102,0.0,True,FM,4.8312739,216
mp-631560,SrMnRe2,1.003735553850575,1.003735553850575,0.0,True,FiM,2.5070017,216
mp-1519598,SrMnSnWO6,-2.258981318293102,0.12090940999999901,1.4639,True,FM,5.0,216
mp-1058586,SrN,-0.23450164187500203,0.43432582749999804,0.0,True,FM,1.0000855,225
mp-1517681,SrNbCrSnO6,-2.619283343499999,0.11350470000000501,2.141699999999999,True,FM,3.0000005,216
mp-1518938,SrNbFeSnO6,-2.4489484315,0.14707755549999502,1.796999999999999,True,FM,5.0000005,216
mp-1516531,SrNbVSnO6,-2.6306439725,0.14413405206250401,0.0,True,FM,1.9999996,216
mp-1523202,SrNdCoSbO6,-2.40408852975,0.215896219687495,0.0,True,FM,2.999999899999999,216
mp-1521877,SrNdCrSnO6,-2.74340753025,0.146193162500001,2.090099999999999,True,FM,3.0000006,216
mp-1520503,SrNdDyMnO6,-3.03520879670977,0.16108167212500002,2.2836,True,FiM,3.0000009,216
mp-1519972,SrNdEuNbO6,-3.246136889250001,0.16329913602976,0.48210000000000003,True,FM,6.9999998,216
mp-1522919,SrNdEuSbO6,-2.91169411525,0.16066965670833303,0.42960000000000004,True,FM,7.0000002,216
mp-1518278,SrNdHfMnO6,-3.196260451543104,0.19166141649999102,0.0,True,FM,4.0000008,216
mp-1520248,SrNdHfTiO6,-3.566660141083333,0.143988824250001,0.0,False,NM,0.0866117,216
mp-1523147,SrNdMgWO6,-2.8920219872499997,0.190840056958326,0.0,True,FM,1.0,216
mp-1218143,SrNdMnCoO6,-2.4270500055431032,0.09741443501562401,0.0,True,FM,7.005922,216
mp-1519799,SrNdMnSnO6,-2.632683872043104,0.16773485274999803,0.0,True,FM,4.0000008,216
mp-1516486,SrNdNiBiO6,-2.14286949975,0.21595006749999002,0.3864,True,FM,2.0000004,216
mp-1518545,SrNdNiSbO6,-2.480704970749998,0.128530609437496,2.720099999999999,True,FM,2.0000008,216
mp-1520463,SrNdZrCrO6,-3.249917282749999,0.15183350550000202,2.452699999999999,True,FM,2.9999998,216
mp-1518683,SrNdZrTiO6,-3.484470746083333,0.15082517149999702,0.0,False,NM,0.0019993,216
mp-631346,SrNiIr2,0.681506220000009,0.929059588749999,0.0,True,FM,1.8296518,225
mp-2472,SrO,-3.075623527499999,0.0,3.2748,False,NM,0.0,225
mp-1187217,SrPmPt2,-0.9847467943750061,0.0,0.0,False,NM,2.1e-06,225
mp-1522443,SrPrCrSnO6,-2.751675773666666,0.127831655499999,2.0575,True,FM,3.0000006,216
mp-1517726,SrPrDyCoO6,-2.756182896333334,0.177306014114915,0.0,True,FM,0.999999899999999,216
mp-1518138,SrPrDyFeO6,-2.8497568223333323,0.195313663437462,0.0,True,FM,4.0000004,216
mp-1519887,SrPrDyNiO6,-2.687236834333332,0.160128222330353,1.4826000000000001,False,NM,5e-07,216
mp-1519336,SrPrEuNbO6,-3.216344683666668,0.180022098592264,0.5263999999999991,True,FM,6.9999999,216
mp-1520445,SrPrEuNiO6,-2.436458395666667,0.27093835533035104,0.0,True,FM,6.0000004,216
mp-1521843,SrPrEuSbO6,-2.884856352666666,0.170413683575,0.45180000000000003,True,FM,6.9999999,216
mp-1522520,SrPrGdNiO6,-2.639427790166665,0.18052876958035302,1.094099999999999,True,FM,6.9999999,216
mp-1520420,SrPrMgBiO6,-2.568992045666665,0.143298964500001,2.3009999999999993,False,NM,0.0,216
mp-1522937,SrPrMnNbO6,-3.00598780395977,0.150094266968748,0.7382999999999991,True,FM,5.0,216
mp-1518344,SrPrNiBiO6,-2.152540990166667,0.195705245999993,0.3113,True,FM,2.0000004,216
mp-1522887,SrPrVSnO6,-2.740501408666667,0.184563566249996,0.0,True,FM,1.9998181,216
mp-1523331,SrPrYMnO6,-3.02671119195977,0.143716569624999,2.2802,True,FM,2.9999998,216
mp-1522142,SrPrZnBiO6,-2.265966943166667,0.196842055499992,0.0,False,NM,0.0,216
mp-1519076,SrPrZrMnO6,-3.11257298595977,0.190064416249992,0.0,True,FM,3.9999997,216
mp-1087,SrS,-2.42499030140625,0.0,2.497,False,NM,0.0,225
mp-7811,SrSO4,-2.465583094583333,0.217051386249999,3.9294000000000002,False,NM,0.0,216
mp-631468,SrScBe,1.2909383233333331,1.369108592666666,0.0,False,NM,0.0130762,216
mp-2758,SrSe,-2.35255396453125,0.0,2.2313,False,NM,0.0,225
mp-1516332,SrSmCrSnO6,-2.723628213999998,0.18058708450000002,2.103899999999999,True,FM,2.9999292,216
mp-1523010,SrSmDyMnO6,-3.012987572459771,0.20340417781248302,2.277699999999999,True,FiM,3.0000009,216
mp-1523179,SrSmEuNbO6,-3.294356167000001,0.135181139717262,0.40700000000000003,True,FM,7.0,216
mp-1521513,SrSmEuNiO6,-2.450110960000001,0.284724770241068,0.0,True,FM,6.0034662,216
mp-1520782,SrSmEuSbO6,-2.954129073000001,0.15568439625000002,0.38279999999999903,True,FM,7.0000002,216
mp-1519755,SrSmEuVO6,-3.060647759000001,0.23321496479161702,0.054399999999999005,True,FM,6.9920103,216
mp-1518521,SrSmFeSnO6,-2.562616553,0.157964580499999,2.1723,True,FM,5.0000006,216
mp-1520664,SrSmHfCrO6,-3.3239609944999993,0.16775744725000002,2.6321,True,FM,3.0000005,216
mp-1523358,SrSmHfFeO6,-3.1393113825,0.168772894249997,2.0815,True,FM,5.0000004,216
mp-1520741,SrSmHfTiO6,-3.546519014833333,0.179754018124985,0.0,False,NM,0.0499729,216
mp-1520963,SrSmMnSnO6,-2.611847228793105,0.202437708749998,0.0,True,FM,4.0000008,216
mp-1518511,SrSmTiNbO6,-3.269157447833332,0.19391522137500403,0.0,False,NM,1.6e-06,216
mp-1518505,SrSmZrCrO6,-3.2283531695,0.18801222449999902,2.408699999999999,True,FM,3.0000004,216
mp-1516441,SrSmZrTiO6,-3.462816922833333,0.18810306237498803,0.0,False,NM,0.0032334,216
mp-631358,SrTa2Mn,1.167627442858478,1.216871190520834,0.0,True,FiM,0.5045341,225
mp-1518143,SrTbEuFeO6,-2.7136972021666663,0.2546326539375,0.0,True,FM,10.0000004,216
mp-1517629,SrTbEuNiO6,-2.518103324166667,0.243695883437502,0.0,True,FM,6.0000066,216
mp-1516843,SrTbEuSbO6,-3.013247925166668,0.11962292641250301,0.29600000000000004,True,FM,7.0000002,216
mp-1517713,SrTbEuVO6,-3.117756487166667,0.203127278624974,0.058600000000000006,True,FM,6.9999946,216
mp-1518469,SrTbEuWO6,-2.995302063166667,0.19655857181249,0.0,True,FM,8.0000003,216
mp-1519326,SrTbPrMnO6,-3.027835131626437,0.149669917624999,2.2916,True,FM,2.999999899999999,216
mp-1958,SrTe,-2.0176923,0.0,1.7616,False,NM,0.0,225
mp-961663,SrTePd,-1.041616672222221,0.260136883333333,0.6743,False,NM,0.0001107,216
mp-1217765,SrTiMnBiO6,-2.538038600126438,0.154857047550004,0.0,True,FM,4.0001316,216
mp-1517760,SrTiNbSnO6,-2.905083342833333,0.128984497624998,0.0,False,NM,0.291754199999999,216
mp-1186765,SrTl2Cd,-0.248324066666669,0.010923391840278001,0.309899999999999,False,NM,0.000120699999999,225
mp-981311,SrTlHg2,-0.37609535208333905,0.0,0.0,False,NM,3.44e-05,225
mp-1521404,SrVSnWO6,-2.3139778385,0.132003965062498,0.49450000000000005,True,FM,3.0000004,216
mp-1186771,SrYb3,0.295217026249996,0.295217026249996,0.0,True,FM,1.6121669,225
mp-1186778,SrYbEu2,0.210120561249997,0.210120561249997,0.0,True,FM,14.937058,225
mp-1517877,SrZnSnWO6,-2.1864815515,0.14507504599999002,2.9475000000000002,False,NM,0.0,216
mp-631361,SrZr2Nb,0.7261369308333301,0.7261369308333301,0.0,True,FiM,0.0891151,216
mp-631506,SrZrCo,1.048716999444444,1.2690259277777791,0.0,False,NM,0.0006242,216
mp-1518482,SrZrInSbO6,-2.586108794666665,0.19195629176136,0.8413,False,NM,0.0,216
mp-1521570,SrZrNbInO6,-2.992522484666666,0.132935744888897,0.5707000000000001,False,NM,0.0,216
mp-1521811,SrZrTiSnO6,-3.110940223833333,0.134916729000002,2.2854,False,NM,0.0,216
mp-1517400,SrZrVSnO6,-2.7633585065,0.18187010821250202,0.0,True,FM,1.0000003,216
mp-631390,SrZrZn,0.855029464444444,1.072398694444444,0.0,False,NM,9.800000000000001e-05,216
mp-6986,Ta,0.24488082999999902,0.24488082999999902,0.0,False,NM,0.0,225
mp-1147689,Ta(Cu3O4)2,-1.378206894488889,0.09563834166667001,0.0,False,NM,3.4e-05,225
mp-1193985,Ta2(Co7B2)3,-0.26285159171264705,0.0,0.0,True,FiM,18.3787565,225
mp-1192512,Ta2(Ni7B2)3,-0.318502784816091,0.0,0.0,False,NM,1.63e-05,225
mp-631451,Ta2CdBi,0.806676277583335,0.806676277583335,0.0,False,NM,2.08e-05,216
mp-867779,Ta2CrFe,-0.125781303666666,0.012144368347222,0.0,False,NM,0.000451599999999,225
mp-867774,Ta2CrOs,-0.309741643666669,0.0,0.0,False,NM,2.05e-05,225
mp-1186772,Ta2CrRe,-0.23299129429166401,0.037964785333329004,0.0,False,NM,0.001283399999999,225
mp-977425,Ta2CrRu,-0.254652972416664,0.0,0.0,False,NM,3.6e-06,225
mp-1190747,Ta2Fe(NF2)6,-0.781930461650793,1.628279768809534,0.013099999999999001,True,FiM,12.0672757,225
mp-979267,Ta2FeMo,-0.164796696166664,0.0,0.0,False,NM,2.1e-06,225
mp-864764,Ta2FeOs,-0.269597676166664,0.004915379375001,0.0,True,FM,1.7320569,225
mp-1186768,Ta2FeRu,-0.23103387866666403,0.019575400384614,0.0,True,FM,1.6227956,225
mp-864761,Ta2MnOs,-0.27911142228735003,0.0017663354166680002,0.0,False,NM,0.004240499999999,225
mp-1186761,Ta2MnRe,-0.324181165412362,0.0,0.0,False,NM,7e-07,225
mp-1186766,Ta2MoIr,-0.44066656866667103,0.0,0.0,False,NM,4.0400000000000006e-05,225
mp-864770,Ta2MoOs,-0.455647456166666,0.0,0.0,False,NM,1e-07,225
mp-864782,Ta2MoRu,-0.40721984741666906,0.0,0.0,False,NM,3e-07,225
mp-1186763,Ta2MoW,-0.13659217616667202,0.0,0.0,False,NM,7.290000000000001e-05,225
mp-864640,Ta2NbIr,-0.38402082116667,0.0,0.0,False,NM,3.2e-06,225
mp-864639,Ta2NbOs,-0.353501543666673,0.0,0.0,False,NM,6.4e-06,225
mp-1186767,Ta2NbRe,-0.27409064929166504,0.0,0.0,False,NM,3.0400000000000004e-05,225
mp-979288,Ta2NbRh,-0.255578943666666,0.0,0.0,False,NM,1e-07,225
mp-864651,Ta2NbRu,-0.283485304916673,0.0,0.0,False,NM,9.1e-06,225
mp-818598,Ta2Ni(NF2)6,-0.621728597365079,1.749509206666672,0.0,True,FM,8.0002611,225
mp-1186759,Ta2OsRu,-0.346605649886896,0.026476593125003,0.0,False,NM,0.0010596,225
mp-864650,Ta2OsW,-0.346737053666664,0.0,0.0,False,NM,2.4e-06,225
mp-977353,Ta2ReMo,-0.38493699429167005,0.0,0.0,False,NM,1.8400000000000003e-05,225
mp-1187213,Ta2ReOs,-0.43558332679167205,0.0,0.0,False,NM,4.51e-05,225
mp-977357,Ta2ReRu,-0.43794802304167,0.0,0.0,False,NM,0.0,225
mp-1187212,Ta2ReTc,-0.5435337892916651,0.0,0.0,False,NM,9e-07,225
mp-1187208,Ta2ReW,-0.314714616791668,0.0,0.0,False,NM,4.43e-05,225
mp-1187211,Ta2RuW,-0.30832274741666704,0.0,0.0,False,NM,3.9e-06,225
mp-977363,Ta2TcMo,-0.37510820366666303,0.0,0.0,False,NM,3.32e-05,225
mp-1187210,Ta2TcOs,-0.484535433666664,0.0,0.0,False,NM,7.580000000000001e-05,225
mp-1187200,Ta2TcRu,-0.464818864916665,6.680416667137479e-05,0.0,False,NM,2.92e-05,225
mp-972209,Ta2TcW,-0.30470035116666505,0.014745202142854002,0.0,False,NM,1.699999999999999e-06,225
mp-1187194,Ta2TiRe,-0.25071684595833604,0.020239233666664,0.0,True,FM,1.2079875,225
mp-1187209,Ta2TiW,-0.0010444703333330001,0.025902112083336003,0.0,False,NM,0.0078843,225
mp-1187195,Ta2VIr,-0.43311716116666304,0.007551056527780001,0.0,False,NM,4.53e-05,225
mp-864670,Ta2VOs,-0.384749546166666,0.0,0.0,False,NM,0.0049346,225
mp-1187201,Ta2VRe,-0.30870847179166805,0.0038478750000050005,0.0,True,FM,1.0335516,225
mp-977382,Ta2VRu,-0.313998332416666,0.0,0.0,True,FM,0.8185882,225
mp-1194177,Ta3(Ni10B3)2,-0.37038333093103504,0.0,0.0,False,NM,3.34e-05,225
mp-1187196,Ta3Ir,-0.35776946549999805,0.0,0.0,False,NM,5e-07,225
mp-1187197,Ta3Os,-0.30315800800000403,0.0,0.0,False,NM,2.4e-06,225
mp-1187204,Ta3Pt,-0.225049778000002,0.053863755416660004,0.0,False,NM,1e-06,225
mp-1187203,Ta3Re,-0.24718471362500302,0.023771365999998,0.0,False,NM,0.000133,225
mp-977390,Ta3Ru,-0.22867657175000003,0.0,0.0,False,NM,1.4e-06,225
mp-1187206,Ta3W,-0.027936240500004,0.0,0.0,False,NM,5.5e-06,225
mp-1104454,Ta4Ga(TeSe)4,-0.856462165605767,0.0,0.0,False,NM,0.8566807,216
mp-3663,Ta4GaSe8,-0.8740431570641051,0.002382608798072,0.0,False,NM,3.91e-05,216
mp-669370,Ta5AuS,-0.38767955202380505,0.0,0.0,False,NM,4e-07,216
mp-30439,Ta6Be15Cu8,-0.199455715827586,0.0,0.0,False,NM,7e-07,225
mp-1208343,Ta6Be15Ni8,-0.406762036172415,0.0,0.0,False,NM,1.4e-06,225
mp-672652,Ta6Co16Ge7,-0.300249959275862,0.0,0.0,True,FM,8.2970283,225
mp-570661,Ta6Co16Si7,-0.5477768749655161,0.0,0.0,False,NM,0.0081706,225
mp-542996,Ta6Fe16Si7,-0.44379364944827304,0.0,0.0,False,NM,0.0,225
mp-582719,Ta6Ni16Ge7,-0.35506523851410604,0.0015360016065840002,0.0,False,NM,0.0008344,225
mp-4502,Ta6Si7Ni16,-0.615635850655174,0.0,0.0,False,NM,0.0001285,225
mp-3340,TaAlCo2,-0.46454584183332703,0.0,0.0,True,FM,2.0000056,225
mp-867249,TaAlFe2,-0.45033847183333103,0.0,0.32420000000000004,False,NM,0.0,225
mp-5921,TaAlNi2,-0.466782146833335,0.012631217125001001,0.0,False,NM,3.6700000000000004e-05,225
mp-862445,TaAlOs2,-0.680675936833338,0.0,0.0,False,NM,9e-07,225
mp-961679,TaAlPt,-0.014324575777777002,0.6806249600555561,0.0,False,NM,3.6400000000000004e-05,216
mp-862446,TaAlRu2,-0.832035074333337,0.0,0.0,False,NM,3e-07,225
mp-631686,TaAsPb2,0.7964247887916681,1.10677532375,0.0,False,NM,7.72e-05,225
mp-1100407,TaAsRu,0.024332799072643,0.5132106322222221,0.0,True,FM,0.073394599999999,216
mp-631566,TaAuBr,0.9427529792222231,1.555515878714286,0.0,False,NM,0.0323716,216
mp-867114,TaBeRu2,-0.37161906058332705,0.0,0.0,False,NM,7.47e-05,225
mp-1100416,TaBiRu,0.601300452925926,0.8321249700000021,0.0,False,NM,0.0001939,216
mp-1009832,TaC,-0.141165068666662,0.518295535000003,0.0,False,NM,0.0006839,216
mp-1086,TaC,-0.659460603666666,0.0,0.0,False,NM,1.2e-06,225
mp-31459,TaCoSb,-0.17669200911111102,0.09887629448148001,0.0,False,NM,0.0005354,216
mp-631635,TaCoSn2,0.599312998166666,0.717784798833332,0.0,True,FM,1.9837173,216
mp-867771,TaCuRh2,-0.48641174683333305,0.0,0.0,False,NM,3.1800000000000014e-05,225
mp-1218012,TaFe(PbO3)2,-2.1636145887333322,0.055723391656246006,2.0945,True,FM,5.0001211,225
mp-1187225,TaFe2Ge,-0.21777693808333,0.030270158593756,0.0,True,FiM,1.0029984,225
mp-867216,TaFeRu2,-0.193612876833331,0.0,0.0,True,FM,4.7738077,225