material_id,formula,formation_energy,ehull,band_gap,is_magnetic,magnetic_ordering,total_magnetization,spacegroup
mp-1521221,BaSrPrZrO6,-3.210264450166667,0.18036927431249902,0.0,False,NM,1.0,216
mp-1100434,BaSrSi,0.163959766666666,0.477941002916667,0.49140000000000006,False,NM,0.0001481,216
mp-1518254,BaSrSmBiO6,-2.729491375500001,0.066296013874998,1.9686999999999992,False,NM,0.0,216
mp-1521852,BaSrSmCrO6,-2.8074998504999993,0.177343667218747,0.0,True,FM,0.999999899999999,216
mp-1522620,BaSrSmFeO6,-2.6275106205,0.08020893239584201,0.1184,True,FM,2.999999899999999,216
mp-1517679,BaSrSmMnO6,-2.767332972293104,0.095514219062502,0.0,True,FM,1.9837514,216
mp-1521926,BaSrSmNbO6,-3.3590336435,0.059907097895832005,2.8688000000000002,False,NM,0.0,216
mp-1523049,BaSrSmSbO6,-3.0120510205,0.037507160999999005,3.502099999999999,False,NM,0.0,216
mp-1516385,BaSrSmSeO6,-2.6101065487343753,0.19688109943749602,0.0,False,NM,0.0171352,216
mp-1517230,BaSrSmVO6,-3.0945519385,0.140542328062523,1.6407,False,NM,0.0,216
mp-1520586,BaSrSmWO6,-2.9906156155,0.128821817708335,0.0,True,FM,1.0,216
mp-962062,BaSrSn,-0.198036074999999,0.41453405000000004,0.0028000000000000004,False,NM,0.0006315,216
mp-1518186,BaSrTbBiO6,-2.779173686666666,0.041376593249998005,1.9042000000000001,False,NM,0.0,216
mp-1520453,BaSrTbCeO6,-3.283715561666666,0.15706442543749302,0.0,True,FM,1.0,216
mp-1522060,BaSrTbCrO6,-2.8632172146666663,0.15168345459374702,0.0,True,FM,1.0000001,216
mp-1522357,BaSrTbHfO6,-3.425355948666666,0.10305046568750001,0.0,False,NM,0.999999899999999,216
mp-1522327,BaSrTbNbO6,-3.417606703666666,0.038422416218750005,2.867,False,NM,0.0,216
mp-1520471,BaSrTbSbO6,-3.062685266666666,0.019644680125,3.501,False,NM,0.0,216
mp-1517448,BaSrTbSeO6,-2.655639534901042,0.181405264812491,0.0,True,FM,0.4398779,216
mp-1522483,BaSrTbSnO6,-2.873348140166666,0.07140664131249701,0.0,False,NM,1.0,216
mp-1517812,BaSrTbVO6,-3.150270062666667,0.11488135543751701,1.6178,False,NM,0.0,216
mp-1518727,BaSrTbWO6,-3.045343477666667,0.10902037081250301,0.0,True,FM,1.0,216
mp-1517924,BaSrTbZrO6,-3.340251679666666,0.11360972081249901,0.0,False,NM,1.0,216
mp-1518116,BaSrTiBiO6,-2.787142427333333,0.10540222399999301,0.0,False,NM,2.2400000000000002e-05,216
mp-1183386,BaSrTl2,-0.41321573666667305,0.0,0.0,False,NM,2.7e-06,225
mp-1521465,BaSrVBiO6,-2.520552897,0.180346066999997,0.985599999999999,False,NM,0.0,216
mp-1516607,BaSrYBiO6,-2.771461435,0.037745764999987004,1.9478,False,NM,0.0,216
mp-1516437,BaSrYCrO6,-2.858605222,0.149218159593746,0.0,True,FM,1.0000002,216
mp-1519160,BaSrYNbO6,-3.416076899,0.039552249999999005,2.8734,False,NM,0.0,216
mp-1521751,BaSrYSbO6,-3.056168905,0.029437131000000002,3.5348,False,NM,0.0,216
mp-1522214,BaSrYVO6,-3.146428603,0.111645527437518,1.6099,False,NM,0.0,216
mp-1519298,BaSrYWO6,-3.041976153999999,0.10359037754168701,0.0,True,FM,1.0,216
mp-980191,BaSrYb2,0.42635208624999804,0.426361090833331,0.0,True,FM,0.9358337,225
mp-1227369,BaSrYbReO6,-2.920624487500001,0.004195232500002,0.0,True,FM,1.9999928999999992,216
mp-1227377,BaSrZnWO6,-2.652970814999999,0.019826626000001003,3.3966,False,NM,0.0001808,216
mp-1521067,BaSrZrNbO6,-3.377579682999999,0.04262701175009,0.0,False,NM,0.000301699999999,216
mp-1516294,BaSrZrSnO6,-3.1282320495000002,0.016180359249996,3.9199,False,NM,0.0,216
mp-631570,BaTaB,1.513706677833334,2.052572823333332,0.0,False,NM,0.0030091,216
mp-1520148,BaTbEuBiO6,-2.747678047166667,0.22989586546875002,0.0,True,FM,6.9681771,216
mp-1520935,BaTbEuSbO6,-3.028117193166666,0.10642614028749701,0.4475,True,FM,7.0000002,216
mp-1522757,BaTbEuSnO6,-2.907305508666667,0.24326703493750002,0.0,True,FM,5.9999999,216
mp-1520472,BaTbEuVO6,-3.135314727166668,0.177227235767034,0.032799999999999004,True,FM,6.9984126,216
mp-1519471,BaTbEuWO6,-3.015825626166666,0.162379402,0.0,True,FM,8.0000002,216
mp-1517949,BaTbInWO6,-2.727974288333333,0.087454447500003,1.6481,False,NM,0.0,216
mp-1517735,BaTbNbSnO6,-2.959220361166666,0.170547586687499,2.4127,False,NM,0.0,216
mp-1517069,BaTbNdFeO6,-2.814224132416666,0.201848536479166,0.0,True,FM,4.0000003,216
mp-1000,BaTe,-2.003574658333334,0.0,1.593,False,NM,0.0,225
mp-1227378,BaTiMnBiO6,-2.495050769126437,0.168152721549985,0.0,True,FM,4.0101239,216
mp-1516399,BaTiMnNbO6,-2.873968581126438,0.195677998405583,0.0,True,FM,4.9234599,216
mp-1522797,BaTiNbGaO6,-2.9035526600833332,0.145619113250019,0.6275000000000001,False,NM,0.0,216
mp-865984,BaTlHg2,-0.398012974583339,0.0,0.0,False,NM,6.9e-06,225
mp-1518364,BaVInWO6,-2.284228544666668,0.163241989473213,0.0,True,FM,2.0421198,216
mp-561516,BaYFe4O7,-2.044719784999999,0.20608977067306103,0.0,True,FM,17.0188797,216
mp-1520192,BaYInWO6,-2.720576961666666,0.08349874545831901,1.6116000000000001,False,NM,0.0,216
mp-1520837,BaYNbSnO6,-2.9569644485,0.16166708640624503,2.443899999999999,False,NM,0.0,216
mp-631495,BaYSc,0.8405989183333331,0.8405989183333331,0.0,True,FM,1.0131026,216
mp-1523132,BaYSnSbO6,-2.5987411455,0.17445652587500202,2.6432,False,NM,0.0,216
mp-1183399,BaYb3,0.335710537499998,0.335710537499998,0.0,False,NM,0.000284299999999,225
mp-1517982,BaZrInSbO6,-2.586593238666666,0.176159184125002,0.7056999999999991,False,NM,0.0,216
mp-1517252,BaZrNbInO6,-3.001397889666667,0.099896537472227,0.6060999999999991,False,NM,0.0,216
mp-631542,BaZrNi,0.6748585433333331,0.9786810166666681,0.0,True,FM,1.2370875,216
mp-1517256,BaZrTiInO6,-3.028436694,0.198604889944444,0.0,False,NM,5.02e-05,216
mp-1214241,Be15(Nb3Cu4)2,-0.192389780517242,0.0,0.0,False,NM,2.7e-06,225
mp-1214229,Be15(Nb3Ni4)2,-0.38335245431034104,0.0,0.0,False,NM,5e-07,225
mp-1432,Be2B,0.040718446944444,0.05464939597222301,0.0,False,NM,0.0,225
mp-1569,Be2C,-0.23053140166666702,0.0,1.163699999999999,False,NM,0.0,225
mp-631489,Be2CdP,0.729983571339286,0.8745846048437501,0.0,False,NM,0.002832399999999,225
mp-867274,Be2CoIr,-0.45885382749999903,0.0,0.0,True,FM,0.7264174,225
mp-867271,Be2CoNi,-0.412348772499999,0.0,0.0,False,NM,1.1e-06,225
mp-867270,Be2CoPt,-0.5855304224999981,0.0,0.0,False,NM,8.130000000000001e-05,225
mp-1227277,Be2CoSi,-0.18463747999999902,0.11335704312500101,0.0,False,NM,0.0032053,216
mp-867273,Be2CuIr,-0.39975566500000004,0.0,0.0,False,NM,0.0,225
mp-865869,Be2CuPt,-0.459643522500002,0.0,0.0,False,NM,7e-07,225
mp-865308,Be2CuRh,-0.422358172499999,0.0,0.0,False,NM,1.2e-06,225
mp-865147,Be2CuRu,-0.248225409999999,0.0008402499999970001,0.0,False,NM,2.6200000000000003e-05,225
mp-631516,Be2HgTe,0.703955182708332,0.989136153124998,0.0,False,NM,0.001094299999999,225
mp-865003,Be2IrPd,-0.601694587499999,0.0,0.0,False,NM,0.0,225
mp-867280,Be2IrPt,-0.7096500949999981,0.0,0.0,False,NM,1.5e-06,225
mp-1183419,Be2IrRu,-0.38714356250000004,0.0,0.0,False,NM,7.599999999999997e-06,225
mp-865229,Be2NiIr,-0.5821398599999981,0.0,0.0,False,NM,0.0,225
mp-866224,Be2NiPt,-0.642503884999998,0.0,0.0,True,FM,0.155494499999999,225
mp-864895,Be2NiRh,-0.591903532499999,0.0,0.0,False,NM,5.7e-06,225
mp-1183421,Be2NiRu,-0.3541496075,0.00452384875,0.0,False,NM,0.0002567,225
mp-864961,Be2PdPt,-0.6840280950000001,0.0,0.0,False,NM,0.0,225
mp-866115,Be2PdRh,-0.650607097499999,0.0,0.0,False,NM,2.4e-06,225
mp-862600,Be2PtRh,-0.7654158374999991,0.0,0.0,False,NM,2.299999999999998e-06,225
mp-631496,Be2ReCl,0.960056829374999,1.865869271406251,0.0,False,NM,0.0123679,216
mp-866024,Be2RhAu,-0.414462902499998,0.0,0.0,False,NM,5.799999999999999e-06,225
mp-867307,Be2RuAu,-0.257657087499998,0.0,0.0,False,NM,6.47e-05,225
mp-865021,Be2RuPt,-0.518279809999999,0.0,0.0,False,NM,0.0004548,225
mp-1009829,Be2Si,0.25882476333333304,0.25882476333333404,0.0,False,NM,0.00037509999999900005,225
mp-1183404,Be3Cu,-0.042210671249999006,0.063069978749999,0.0,False,NM,0.0,225
mp-1227276,Be4AlCr,-0.098219859999999,0.021463719166666003,0.0,True,FM,3.0032449,216
mp-1227275,Be4AlCu,-0.06932595833333201,0.010284149166666002,0.0,False,NM,7.2e-06,216
mp-1227272,Be4AlFe,-0.236783661666664,0.0,0.0,True,FM,0.962502899999999,216
mp-1227279,Be4AlNi,-0.291239673333333,0.0,0.0,False,NM,1.4e-06,216
mp-1227289,Be4CoGe,-0.07697105083333301,0.11315485833333301,0.0,False,NM,0.003353999999999,216
mp-1227292,Be4CuGe,0.1702956725,0.24048277250000002,0.0,False,NM,0.0007098,216
mp-1227281,Be4CuSi,0.127331294999999,0.19751839499999901,0.0,False,NM,0.0004261,216
mp-1227297,Be4FeGe,-0.07533263750000001,0.06399220333333301,0.0,False,NM,2.25e-05,216
mp-1227318,Be4InCu,0.171065972222222,0.24125307222222203,0.0,False,NM,8.740000000000002e-05,216
mp-1227295,Be4NiGe,-0.024079585833333,0.16504421500000002,0.0,False,NM,6.15e-05,216
mp-1227282,Be4SiNi,-0.11591907333333201,0.07320472749999901,0.0,False,NM,8.850000000000002e-05,216
mp-27608,Be4TeO7,-2.572461434305555,0.0,1.280699999999999,False,NM,0.0,216
mp-1220,Be5Au,-0.08535215583333401,0.0,0.0,False,NM,3e-07,216
mp-1071690,Be5Co,-0.187673225833333,0.0024526833333330003,0.0,False,NM,0.0019839,216
mp-1025010,Be5Fe,-0.09007575583333301,0.049249084999999006,0.0,True,FM,1.7828741,216
mp-650,Be5Pd,-0.31534194249999903,0.0,0.0,False,NM,0.0,216
mp-1072399,Be5Pt,-0.461596844166666,0.0,0.09529999999999901,False,NM,0.0,216
mp-4262,BeAlB,-0.052399171388889006,0.0,0.0,False,NM,4e-07,216
mp-865966,BeAlIr2,-0.7749259637500001,0.0,0.0,False,NM,5e-07,225
mp-862287,BeAlRh2,-0.8688942487500011,0.0,0.0,False,NM,1e-07,225
mp-1183409,BeAsRu2,-0.243328645624999,0.027374849375001002,0.0,False,NM,0.0003105,225
mp-631507,BeBiOs2,0.9701943362499991,1.050343917610293,0.0,False,NM,0.0090426,216
mp-862706,BeCo2Ge,-0.29541524750000003,0.0,0.0,False,NM,0.0005712,225
mp-865901,BeCo2Si,-0.5671847212500001,0.0,0.0,False,NM,2.9800000000000003e-05,225
mp-1183416,BeCrFe2,-0.10977993875000001,0.0,0.0,False,NM,5.35e-05,225
mp-867837,BeCrRu2,-0.142905241249999,0.0,0.0,False,NM,3e-06,225
mp-631505,BeCuBr,0.5713827866666661,1.306132023333334,0.076999999999999,False,NM,1.4e-05,216
mp-862669,BeFe2Si,-0.379209641249999,0.0,0.0,True,FM,1.2013536,225
mp-867840,BeFeRh2,-0.32620436874999903,0.0,0.0,True,FM,4.1952038,225
mp-984721,BeGaCo2,-0.273360490625,0.008029062500000001,0.0,False,NM,2.299999999999998e-06,225
mp-867116,BeGaIr2,-0.493593135624998,0.0,0.0,False,NM,2.299999999999998e-06,225
mp-862291,BeGaRh2,-0.671457313124999,0.0,0.0,False,NM,0.0,225
mp-631450,BeGe2Te,0.513970239583333,0.7991512099999991,0.0,False,NM,0.001864,216
mp-631541,BeGeB,0.7571133102777781,0.764078784791667,0.0,False,NM,0.0003483,216
mp-862713,BeGeRu2,-0.279699512499998,0.0,0.0,False,NM,3.15e-05,225
mp-631497,BeInBi,0.7127795761111101,0.740610409999998,0.0,False,NM,0.000257499999999,216
mp-631467,BeInSi2,0.7485456745833331,0.7485456745833331,0.0,False,NM,0.000325,216
mp-867828,BeNbRu2,-0.27588973375000003,0.0,0.0,False,NM,0.0003772,225
mp-1778,BeO,-3.095882134999999,0.006973667500000001,6.8477000000000015,False,NM,0.0,216
mp-1794,BeO,-2.621381074999999,0.48147472750000003,8.1681,False,NM,0.0,225
mp-631537,BeReB,0.8464212311111101,1.2495247475,0.0,False,NM,0.0030114,216
mp-862622,BeRu2W,-0.20696927374999902,0.0,0.0,False,NM,0.0,225
mp-422,BeS,-1.307732301249999,0.0,3.1453,False,NM,0.0,216
mp-631578,BeSbAs2,0.6346474724999991,0.6393781443749991,0.0,False,NM,0.0003292,225
mp-11335,BeSe,-0.48434856867187404,0.545039294999999,0.0,False,NM,4.1e-06,225
mp-1541,BeSe,-1.029387863671874,0.0,2.663699999999999,False,NM,0.0,216
mp-865904,BeSiIr2,-0.663109713750001,0.0,0.0,False,NM,3.299999999999999e-06,225
mp-865792,BeSiNi2,-0.508235893749999,0.0,0.0,False,NM,0.0,225
mp-867107,BeSiOs2,-0.29568593874999904,0.0,0.0,False,NM,1.5300000000000003e-05,225
mp-1008491,BeSiP2,0.5609131214285721,0.9335085650000001,0.0,False,NM,0.00020429999999900002,225
mp-867767,BeSiRh2,-0.812091816249999,0.0,0.0,False,NM,4.2e-06,225
mp-867835,BeSiRu2,-0.5546445212500011,0.0,0.0,False,NM,3.4e-05,225
mp-631462,BeTcSe,0.416852705885416,1.103111281666666,0.0,False,NM,0.0002881,216
mp-252,BeTe,-0.570361940833332,0.0,2.017299999999999,False,NM,0.0,216
mp-866288,BeVCo2,-0.280405191249999,0.0,0.0,True,FiM,0.9993382,225
mp-867304,BeVFe2,-0.23227479624999903,0.0,0.0,True,FiM,0.9740513,225
mp-867275,BeVOs2,-0.24832689374999703,0.0,0.0,False,NM,0.0002654,225
mp-867874,BeVRu2,-0.35139449374999904,0.0,0.0,False,NM,4.999999999999999e-06,225
mp-631535,BeW2Cl,0.8665887737500001,1.615826205625001,0.0,False,NM,0.1010605,225
mp-631571,Bi2OsAu,0.7218321493749961,0.7218321493749961,0.0,True,FM,0.13931759999999901,225
mp-1183492,Bi3Au,0.16580898937500102,0.16580898937500102,0.0,False,NM,2.6800000000000004e-05,225
mp-1183465,Bi3Pb,0.09424927749999701,0.09424927749999701,0.0,False,NM,0.0026704,225
mp-631577,BiAs2Os,0.7428304074999941,0.970749996249999,0.0,False,NM,0.0015700999999990002,216
mp-1006880,BiB,0.8213030854166661,0.8213030854166661,0.0922,False,NM,0.0001848,216
mp-631539,BiBCl,1.5898406582407412,2.0539569512963,0.0,False,NM,0.0068781,216
mp-631511,BiBTe,1.101091086388886,1.25353608861111,0.0,False,NM,0.00035000000000000005,216
mp-23301,BiF3,-2.350704290000003,0.270821632499998,3.966299999999999,False,NM,2.6600000000000003e-05,225
mp-1008490,BiI3,-0.16696738375,0.59941953375,0.0,False,NM,8.27e-05,225
mp-631482,BiMoRh,0.524144535000004,0.7002014387499991,0.0,False,NM,0.0044434,216
mp-32548,BiO2,-1.3577277800000012,0.10203634666666601,0.0,False,NM,0.0003209,225
mp-1183442,BiPd2Au,-0.18979512375000201,0.024275402249990002,0.0,False,NM,0.0,225
mp-1227285,BiPd3,-0.20901389125000203,0.024378722499996,0.0,False,NM,0.0,225
mp-631474,BiSb2Os,0.7353753435416761,0.798371127291673,0.0,False,NM,0.0006351,225
mp-568844,BiSe,-0.21055150286458202,0.151179276666667,0.0,False,NM,0.0009672,225
mp-567362,BiTe,-0.12440894583333001,0.10425855750000301,0.0,False,NM,1.4e-05,225
mp-631440,BiTeIr,0.9243571516666591,1.232165209166673,0.0,False,NM,3.399999999999998e-06,216
mp-998861,Br,0.6662806450000001,0.6662806450000001,0.0,False,NM,0.0015689,225
mp-36891,Br3N,1.477386134999999,1.477386134999999,0.0,False,NM,0.0005376,225
mp-1058019,BrN,2.080652324999999,2.080652324999999,0.0,False,NM,0.0005417999999990001,225
mp-1014311,C3N,4.211795025624998,4.211795025624998,0.0,False,NM,1.77e-05,225
mp-45,Ca,0.0,0.0,0.0,False,NM,2.6e-06,225
mp-1147677,Ca(Cu3O4)2,-1.270262681333333,0.030674522333333003,0.0,False,NM,0.309454499999999,225
mp-1078208,Ca(IN3)2,1.527608172222221,2.15907859222222,0.0,True,FM,1.9999467,225
mp-30474,Ca11Ga7,-0.437407985833333,0.003296450457515,0.0,False,NM,0.0001192,225
mp-27407,Ca12Be17O29,-3.180722960862069,0.0062005340517210005,3.7478,False,NM,0.0001824,216
mp-1019552,Ca16(SiN2)17,-1.36736013761194,0.024001300124385002,0.0,False,NM,0.982066999999999,216
mp-5669,Ca19Ag8N7,-0.6252610694485331,0.039643707352935,0.0,False,NM,1.6277719,225
mp-642331,Ca19In8N7,-0.7612598602450931,0.0,0.0,False,NM,0.0099353,225
mp-1193221,Ca2(Ni7B2)3,-0.24333504051724103,0.027331254482752,0.0,True,FM,0.193905599999999,225
mp-983850,Ca2AgAu,-0.55499469375,0.025546808749999,0.0,False,NM,2.8e-06,225
mp-983598,Ca2AgBi,-0.728312803333341,0.027510130208334004,0.0,False,NM,0.0048904,225
mp-983566,Ca2AgGe,-0.5064037787500001,0.056231793409089,0.0,False,NM,5.4e-06,225
mp-864991,Ca2AgPb,-0.46661966791666404,0.0,0.0,False,NM,0.0001347,225
mp-1183456,Ca2AgPd,-0.46197981124999804,0.033896488020833004,0.0,False,NM,0.0004504,225
mp-1183516,Ca2AgRh,-0.299633551249998,0.051606258958335004,0.0,False,NM,2.2e-06,225
mp-867751,Ca2AgSn,-0.532931791666665,0.0,0.0,False,NM,1.0800000000000002e-05,225
mp-867113,Ca2AsAu,-1.093239665624999,0.040253862187515005,0.19810000000000003,False,NM,0.0,225
mp-867799,Ca2BiAu,-0.9215019562500011,0.000284773125013,0.0002,False,NM,0.0,225
mp-1521626,Ca2BiSbO6,-2.230748391999999,0.275889941374996,1.7213,False,NM,0.0,225
mp-1516707,Ca2BiWO6,-2.193221346999999,0.44779195250000603,0.0,True,FM,1.0,225
mp-1183448,Ca2CdGa,-0.39061690187499903,0.0151266525,0.0,False,NM,5.2e-06,225
mp-1183458,Ca2CdHg,-0.43901375562500106,0.0033213500000000003,0.0,False,NM,1.38e-05,225
mp-977453,Ca2CdIn,-0.41226820416666604,0.0,0.0,False,NM,2.5800000000000004e-05,225
mp-865167,Ca2CdPb,-0.49253916749999804,0.0,0.0,False,NM,4e-07,225
mp-861940,Ca2CdSn,-0.551291871249999,0.0,0.0,False,NM,1.77e-05,225
mp-1520291,Ca2CeNiO6,-2.553801667999998,0.19827143862500102,1.45,False,NM,0.0,225
mp-631696,Ca2CoW,1.029828753333333,1.029828753333333,0.0,True,FM,1.077572,216
mp-1183482,Ca2CuRh,-0.23997257506944403,0.035739592986111006,0.0,False,NM,0.0021123,225
mp-1226627,CeMg2Ni,-0.018098449999998,0.17340890187500102,0.0,True,AFM,0.142613799999999,216
mp-1798,CeMg3,-0.05458833874999901,0.0,0.0,True,FM,1.1719309,225
mp-865037,CeMgAg2,-0.16235838458333202,0.019158329374999002,0.0,True,FM,1.3096361,225
mp-1183717,CeMgAu2,-0.648001093749997,0.0,0.0,True,FM,1.1935752,225
mp-1183727,CeMgCd2,-0.202599081249998,0.0,0.0,True,FM,1.1435484,225
mp-1183744,CeMgHg2,-0.38191538500000305,0.0,0.0,True,FM,0.9802168,225
mp-13435,CeMgNi4,-0.38833065916666604,0.0,0.0,False,NM,0.0179202,216
mp-13254,CeMgZn2,-0.27305012374999904,0.0,0.0,True,FM,0.8761481,225
mp-5951,CeMnNi4,-0.269097694655171,0.033985940205941,0.0,True,FiM,4.9086442,216
mp-2493,CeN,-1.746165499374996,0.0,0.0,True,FM,0.7594189,225
mp-1226518,CeNdAl4,-0.509371502916666,0.020836154166667002,0.0,True,FM,0.5503692,216
mp-1183768,CeNdHg2,-0.5121771431250011,0.000743022500003,0.0,True,FiM,0.2899034,225
mp-1183819,CeNdZn2,-0.175518341874998,0.100424128750002,0.0,True,FM,1.1925496,225
mp-10688,CeO,-3.232231492499998,0.0,0.0,False,NM,0.023265499999999002,225
mp-20194,CeO2,-3.9271761966666663,0.0,1.8647,False,NM,0.0,225
mp-34976,CeOF,-4.0010658,0.083501268333336,0.0,True,FM,0.9993622,216
mp-2154,CeP,-1.756998903988094,0.0,0.0,True,FM,0.9032509,225
mp-1183814,CePbAu2,-0.5589214249999951,0.0,0.0,True,FM,0.974214999999999,225
mp-1025415,CePd7,-0.484818358749997,0.0,0.0,False,NM,7e-07,225
mp-1183812,CePmMg2,0.006334738125,0.07691734125000001,0.0,True,FM,1.1783771,225
mp-983551,CePmTl2,-0.47552318187499704,0.0,0.0,True,FiM,0.6198737,225
mp-983559,CePmZn2,-0.248268974374998,0.0,0.0,True,FM,1.0521288,225
mp-1226498,CePrAl4,-0.499035509444444,0.020755378333332002,0.0,True,FM,0.5362618,216
mp-1226526,CePrFe4,0.042824134722222004,0.082996405555555,0.0,True,FiM,6.7226361,216
mp-1183860,CePrHg2,-0.507816801666663,0.00020005999999700002,0.0,True,FiM,0.260938499999999,225
mp-1183722,CePrMg2,0.010507304583334001,0.0830273975,0.0,True,FM,1.1024626,225
mp-1226700,CePuCo4,0.00048176187500300005,0.11757912020833601,0.0,True,FM,8.6353197,216
mp-1226594,CePuFe4,-0.0075169964583300004,0.032655274375002,0.0,True,FiM,0.3717107,216
mp-1096,CeS,-2.24176775140625,0.0,0.0,False,NM,0.000254899999999,225
mp-387,CeSb,-1.407199144999999,0.0,0.0,True,FM,0.985239099999999,225
mp-1226553,CeScAl4,-0.4638798175,0.052638470833333006,0.0,True,FM,0.441741699999999,216
mp-2563,CeSe,-2.048877901171872,0.0,0.0,True,FM,1.1608146,225
mp-1080251,CeSe2,-1.905549541562499,0.033578587916666,0.783199999999999,False,NM,0.0,225
mp-1080355,CeSe2,-1.401577836979166,0.5375502924999991,1.013699999999999,False,NM,3.3100000000000005e-05,225
mp-1444174,CeSe2,-1.905166759340277,0.033961370138889,0.8058000000000001,False,NM,6.570000000000001e-05,225
mp-1226561,CeSmFe4,0.0058716725,0.046043943333333004,0.0,True,FiM,6.1849275,216
mp-1183845,CeSmMg2,0.0017464687500000002,0.06423026875,0.0,True,FM,1.0467861,225
mp-1183757,CeSmTl2,-0.298414765416666,0.016373712500002,0.0,True,FiM,0.621698099999999,225
mp-1183758,CeSmZn2,-0.248229848749999,0.035519875,0.0,True,FM,1.1144752,225
mp-867310,CeSnAu2,-0.656840798749994,0.0,0.0,True,FM,1.0220219,225
mp-1525,CeTe,-1.571865663333332,0.0,0.0,True,FM,1.378356699999999,225
mp-867298,CeTlAg2,-0.161305699166667,0.0044506038888880006,0.0,True,FM,1.0964941,225
mp-867361,CeTlAu2,-0.516936933333336,0.0,0.0,True,FM,1.0640292,225
mp-1184197,CeTmIn2,-0.5620050000000021,0.0,0.0,True,FM,0.9153657,225
mp-1183796,CeTmMg2,-0.021953490833336,0.033561233333333,0.0,True,FM,0.9565591,225
mp-1226672,CeUFe4,-0.049255851666664005,0.041803448333334006,0.0,True,FiM,2.9459367,216
mp-1226528,CeYAl4,-0.5124104766666661,0.030160996666667002,0.0,True,FM,0.5170789,216
mp-1226470,CeYCo4,-0.15342123333333202,0.03665853,0.0,True,FiM,0.7532876,216