material_id,formula,formation_energy,ehull,band_gap,is_magnetic,magnetic_ordering,total_magnetization,spacegroup
mp-1079023,Si(NF3)2,-0.793237713333333,1.246741990555556,0.0,True,FM,3.9971908,225
mp-631331,Si2HgTe,0.6247457081249971,0.7198140125000021,0.0,False,NM,0.0006943,225
mp-1206741,Si2Ir,-0.5403598966666671,0.058270887638890004,0.0,False,NM,0.0,225
mp-2291,Si2Ni,-0.344433906666665,0.0,0.0,False,NM,4e-06,225
mp-972777,Si2OsRu,-0.507034938749999,0.016472589374998,0.0,False,NM,9e-07,225
mp-12874,Si2Ru,-0.27281968708333404,0.28892065125000005,0.0,False,NM,0.0001047,225
mp-978500,Si2TcOs,-0.41028138730823804,0.053857597613635004,0.0,False,NM,0.002964999999999,225
mp-972752,Si3As,0.5417743177083341,0.601616513749999,0.0,False,NM,0.000426799999999,225
mp-972767,Si3F,-0.24723119468750002,0.7861975843749991,0.0,False,NM,0.0010025,225
mp-972751,Si3Ge,0.580802638749999,0.580802638749999,0.0,False,NM,5.0300000000000016e-05,225
mp-978497,Si3H,0.61138596578125,0.6139539096875,0.0,False,NM,0.0002633,225
mp-1252369,Si3Os,0.282213253749993,0.6559785156249981,0.0,False,NM,1.4100000000000002e-05,225
mp-972741,Si3P,0.5785683325892841,0.6635494337499991,0.0,False,NM,0.0003925,225
mp-978509,Si3Ru,0.19673985968749702,0.618045113437499,0.0,False,NM,1.1000000000000001e-05,225
mp-978501,Si3Se,0.643814000703123,0.8382790774999991,0.0,False,NM,0.0024196,225
mp-1186998,SiAu3,0.16429186749999702,0.16429186749999702,0.0,False,NM,8e-05,225
mp-631562,SiBAu,0.901577752361106,0.9211999394444451,0.0,False,NM,0.002124199999999,216
mp-631526,SiBPb,1.411171829027774,1.430794016111111,0.0,False,NM,0.0125382,216
mp-972837,SiBi3,0.45167215999999405,0.45167215999999405,0.0,False,NM,0.0027218,225
mp-1002206,SiC,0.436798360631579,0.7427448055000011,0.0,False,NM,0.001676,225
mp-8062,SiC,-0.30577789250000004,0.00016855236842100001,1.3669,False,NM,0.0,216
mp-8003,SiCN,1.401718794480261,2.223260221958335,0.0,False,NM,0.0020579,216
mp-1219182,SiGe,0.016203427499998,0.016203427499998,0.6059999999999991,False,NM,0.0,216
mp-999187,SiHgP2,0.749274128824406,0.856067177500001,0.0,False,NM,0.0001897,225
mp-10064,SiO2,-1.99488781,1.27794353388889,1.739599999999999,False,NM,3.96e-05,225
mp-559962,SiO2,-3.231052067222221,0.041779276666668,5.677099999999999,False,NM,0.0,225
mp-600023,SiO2,-3.249977835,0.022853508888889002,5.5462,False,NM,0.0,225
mp-8097,SiP,0.19633886517857102,0.3663010675,0.0,False,NM,0.001451099999999,216
mp-631368,SiSbOs2,0.8619082989583401,1.089647395208331,0.0,False,NM,0.0231234,216
mp-1009813,SiSn,0.19199882250000003,0.19199882250000003,0.429199999999999,False,NM,5.5e-06,216
mp-972810,SiTc2W,-0.311230156249997,0.0,0.0,False,NM,2e-07,225
mp-631362,SiTe2Os,0.8935264540624991,1.140061805624999,0.0,False,NM,8.210000000000003e-05,225
mp-631389,SiWCl2,1.046228950937493,1.947321919062499,0.0,False,NM,0.028976199999999,225
mp-21377,Sm,0.018011249999997002,0.018011249999997002,0.0,False,NM,1.0800000000000002e-05,225
mp-567122,Sm11Cd45,-0.233865624196427,0.0,0.0,False,NM,0.001246299999999,216
mp-1204969,Sm11Hg45,-0.26685109459822304,0.08426484178571,0.0,False,NM,3.2692202,216
mp-978545,Sm2AgHg,-0.431318780624998,0.0,0.0,False,NM,1.22e-05,225
mp-867868,Sm2AgIr,-0.5791798606306311,0.032401548164415005,0.0,False,NM,0.0020932,225
mp-972530,Sm2AgRh,-0.48927525041666603,0.024012994560808004,0.0,False,NM,0.002127,225
mp-867869,Sm2AgRu,-0.2817299925,0.0,0.0,False,NM,2.7300000000000003e-05,225
mp-972511,Sm2AgSn,-0.525067704166666,0.027690606497749,0.0,True,FM,0.6032131,225
mp-978519,Sm2AlCd,-0.33365447999999903,0.019134239062499,0.0,False,NM,0.0004878,225
mp-972504,Sm2AlZn,-0.352529827499999,0.014670939062499002,0.0,False,NM,2.5800000000000004e-05,225
mp-1187051,Sm2CdIn,-0.404938584166667,0.0,0.0,False,NM,6.360000000000001e-05,225
mp-978555,Sm2CdIr,-0.45731647750000004,0.091918031666661,0.0,False,NM,0.014060399999999001,225
mp-867887,Sm2CuIr,-0.5488407323611101,0.043416417638887005,0.0,False,NM,0.00012000000000000002,225
mp-867895,Sm2CuRu,-0.24162951874999902,0.01369250078125,0.0,False,NM,4.4900000000000014e-05,225
mp-1187000,Sm2GaAg,-0.482621383749997,0.026533597500002,0.0,True,FM,0.2582064,225
mp-1187015,Sm2HgPb,-0.612277124374998,0.042595157749999,0.0,False,NM,0.0001975,225
mp-978891,Sm2InAg,-0.465502733749999,0.0,0.0,True,FM,0.2768484,225
mp-1005693,Sm2InHg,-0.597539326875001,0.0,0.0,True,FM,0.8341807,225
mp-1187003,Sm2IrAu,-0.735747755000002,0.0,0.0,False,NM,2.7200000000000004e-05,225
mp-867142,Sm2IrPd,-0.846055597499997,0.0,0.0,False,NM,1.6e-06,225
mp-867899,Sm2IrRh,-0.711750322499999,0.0,0.0,False,NM,0.0024971,225
mp-867859,Sm2IrRu,-0.495227183125003,0.08871150750000101,0.0,False,NM,0.0124146,225
mp-867894,Sm2MgAl,-0.25623876875,0.0,0.0,False,NM,1e-07,225
mp-1187002,Sm2MgCd,-0.18735842124999902,0.005348970000000001,0.0,False,NM,0.0006085999999990001,225
mp-1187179,Sm2MgIn,-0.320705070416666,0.0,0.0,False,NM,2.4e-05,225
mp-978624,Sm2MgIr,-0.35350373625000003,0.133782391249996,0.0,False,NM,0.0196556,225
mp-972493,Sm2MgRu,-0.10887526374999901,0.09865034730902501,0.0,False,NM,6.950000000000002e-05,225
mp-978625,Sm2MgTl,-0.24785554958333403,0.004598202916666,0.0,False,NM,4.08e-05,225
mp-1079654,Sm2MnGa6,-0.6366312271647541,0.0,0.0,True,FM,2.6747372,225
mp-867852,Sm2NiIr,-0.5172294150000001,0.059766638194456004,0.0,False,NM,0.0109645,225
mp-1187018,Sm2NiRu,-0.251740889999999,0.052976802812499,0.0,False,NM,0.030090199999999002,225
mp-972572,Sm2PdRh,-0.7711791925000011,0.021220643749996,0.0,False,NM,3e-07,225
mp-867128,Sm2PdRu,-0.535509165859373,0.036652392812502,0.0,False,NM,9.9e-06,225
mp-978824,Sm2RuAu,-0.48480495999999906,0.053414555312499,0.0,False,NM,0.026360099999999,225
mp-972536,Sm2TlAg,-0.32710896125000305,0.0,0.0,True,FM,0.254564,225
mp-867191,Sm2TlCd,-0.347928643333333,0.0,0.0,True,FM,0.9003165,225
mp-978807,Sm2TlHg,-0.426772846458337,0.0,0.0,True,FM,0.8992243,225
mp-1187001,Sm2TlIn,-0.42626731500000004,0.0037616850000010004,0.0,False,NM,2.6600000000000003e-05,225
mp-978815,Sm2TlZn,-0.337042155833334,0.017576122500000003,0.0,False,NM,0.0007161,225
mp-979057,Sm2ZnAg,-0.29522589791666504,0.005592954999999,0.0,False,NM,7.93e-05,225
mp-978808,Sm2ZnGa,-0.464249656875001,0.0027107737499970004,0.0,False,NM,7.010000000000001e-05,225
mp-978973,Sm2ZnHg,-0.380444883125003,0.0,0.0,True,FM,0.639128399999999,225
mp-978950,Sm2ZnIn,-0.395506921666667,0.009622552499997,0.0,False,NM,0.0002126,225
mp-867182,Sm2ZnIr,-0.536793945,0.042108379583328005,0.0,False,NM,0.0158767,225
mp-867921,Sm2ZnRu,-0.27712429,0.023532666249997003,0.0,False,NM,0.0001148,225
mp-1209001,Sm3(Ge3Pd10)2,-0.6725471801724141,0.0,0.0,False,NM,0.0,225
mp-1208970,Sm3(P3Pd10)2,-0.7131276618226561,0.0,0.0,False,NM,3e-07,225
mp-1208981,Sm3(Si3Pd10)2,-0.8239668731034491,0.0,0.0,False,NM,1e-07,225
mp-972456,Sm3V,0.366579708749998,0.366579708749998,0.0,True,FiM,3.4213115,225
mp-1208937,Sm4CdIr,-0.47006957916666803,0.0,0.0,False,NM,2.1e-06,216
mp-1208939,Sm4CdNi,-0.25464616499999904,0.0,0.0985,False,NM,5.6100000000000015e-05,216
mp-1208955,Sm4CdPd,-0.40909275166666403,0.0,0.09430000000000001,False,NM,9.499999999999994e-06,216
mp-1208941,Sm4CdPt,-0.555744480416668,0.0,0.0,False,NM,1.2800000000000001e-05,216
mp-1208958,Sm4MgIr,-0.383973677083333,0.0,0.0,False,NM,9.9e-06,216
mp-1208976,Sm4MgNi,-0.16825010541666402,0.0,0.0,False,NM,1e-07,216
mp-1208963,Sm4MgPd,-0.325038865833333,0.005639780833332,0.043899999999999,False,NM,0.0061121,216
mp-1208870,Sm4MgPt,-0.474927645,0.0,0.038499999999999,False,NM,0.000116799999999,216
mp-567957,Sm4MgRh,-0.357029802083332,0.0,0.0,False,NM,7.499999999999998e-06,216
mp-1208945,Sm4MgRu,-0.199044219583337,0.0,0.0,False,NM,8.710000000000003e-05,216
mp-1193555,Sm6Fe23,0.024175548275861002,0.024175548275862,0.0,True,FiM,52.0077967,225
mp-1192593,Sm6Mg23C,-0.06829607833333301,0.0018669484444430002,0.0,False,NM,0.2108735,225
mp-1193387,Sm6Mn23,0.111985020261593,0.111985020261592,0.0,True,FiM,25.6101265,225
mp-978516,SmAg2Hg,-0.303810620115587,0.040296146312950004,0.0,False,NM,0.0026037,225
mp-862735,SmAg2Sn,-0.387455830833332,0.04732503447172701,0.0,False,NM,0.002253,225
mp-862736,SmAg3,-0.197804233749998,0.062381017635136,0.0,False,NM,0.0,225
mp-867254,SmAgAu2,-0.583560251666669,0.0,0.0,False,NM,1.18e-05,225
mp-867218,SmAgHg2,-0.41475869749999805,0.0,0.0,False,NM,4e-07,225
mp-862749,SmAlAg2,-0.330054905,0.039328794123047,0.0,False,NM,0.0,225
mp-1738,SmAs,-1.798826756249997,0.0,0.0,False,NM,2e-07,225
mp-1004525,SmB12,-0.241017129230769,0.038252772692306,0.0,False,NM,0.0,225
mp-22873,SmBi,-1.151759717500006,0.0,0.0,False,NM,1e-07,225
mp-972657,SmBiAu2,-0.60367778625,0.038711723918923004,0.0,False,NM,0.00014000000000000001,225
mp-1207190,SmBiPd,-1.060600278333334,0.0,0.0,False,NM,0.0,216
mp-862752,SmBiPd2,-0.7848927574999891,0.07994228291666801,0.0,False,NM,0.000726,225
mp-867158,SmCd3,-0.266570493749999,0.001982188749998,0.0,False,NM,1.1e-06,225
mp-867853,SmCdAg2,-0.274145252083332,0.0,0.0,False,NM,1.22e-05,225
mp-867882,SmCdAu2,-0.645947641249996,0.0,0.0,False,NM,3.299999999999999e-06,225
mp-867157,SmCdHg2,-0.389039195000002,0.0,0.0,False,NM,5e-07,225
mp-1072586,SmCdNi4,-0.306458220833328,0.0,0.0,True,FiM,0.7715693,216
mp-978517,SmCdPd2,-0.6678116687499991,0.006422534722221001,0.0,False,NM,3e-06,225
mp-867863,SmCu4Ag,-0.205667627499998,0.0,0.0,False,NM,2e-07,216
mp-1219091,SmDyFe4,-0.023008432777778,0.021273870833332,0.0,True,FiM,7.8918868,216
mp-978557,SmDyHg2,-0.572579385000004,0.0,0.0,False,NM,0.000106599999999,225
mp-978796,SmDyIn2,-0.606047383749999,0.002973247499998,0.0,False,NM,1.83e-05,225
mp-972639,SmDyIr2,-0.7344183241666651,0.033070873410711,0.0,False,NM,4.39e-05,225
mp-867159,SmDyMg2,-0.072119819166663,0.0,0.0,False,NM,0.0002948,225
mp-972650,SmDyRh2,-0.7895103966666661,0.013951467499998002,0.0,False,NM,1.5000000000000002e-05,225
mp-978520,SmDyRu2,-0.23713931666666502,0.06887693309374901,0.0,False,NM,0.0002786,225
mp-978527,SmDyTl2,-0.351101210833339,0.0,0.0,False,NM,3.24e-05,225
mp-972640,SmDyZn2,-0.33158715916666404,0.0037191674999990003,0.0,True,FM,0.710514099999999,225
mp-1219072,SmErFe4,-0.043728454166664,0.022472533611113003,0.0,True,FiM,7.5991887,216
mp-972635,SmErHg2,-0.563145354583333,0.0,0.0,False,NM,9.59e-05,225
mp-978542,SmErIn2,-0.5847715733333311,0.004122224999999,0.0,False,NM,1.8100000000000003e-05,225
mp-1187013,SmErIr2,-0.763159056249999,0.041877348249998,0.0,False,NM,1.0300000000000001e-05,225
mp-978513,SmErMg2,-0.06951272124999801,0.0,0.0,False,NM,0.0001619,225
mp-1219078,SmErMn4,0.11728635697796601,0.181936546944442,0.0,True,FiM,5.0158061,216
mp-978558,SmErRh2,-0.816731158749999,0.020793564999998,0.0,False,NM,1.4e-06,225
mp-972633,SmErRu2,-0.268383636249999,0.063807579124998,0.0,False,NM,0.0005570999999990001,225
mp-978543,SmErTl2,-0.338921110416669,0.0023725725,0.0,False,NM,3.3100000000000005e-05,225
mp-972630,SmErZn2,-0.335605633749998,0.006383089999999001,0.0,True,FM,0.441044899999999,225
mp-1516316,SmEu2NbO6,-3.2631790905,0.15577926061667002,0.36500000000000005,True,FM,14.0000001,225
mp-1517917,SmEu2SbO6,-2.9199404875000012,0.24129217950001003,0.27179999999999904,True,FM,14.0000003,225
mp-1207138,SmEu2TaO6,-3.388662624233333,0.11047729106250101,0.756,True,FM,13.9925071,225
mp-1520494,SmEu2VO6,-3.046094209500002,0.301357623749998,0.0,True,FM,13.9991388,225
mp-1219071,SmEuB12,-0.5451472653571441,0.0,0.0,True,FM,6.8050683,225
mp-1521686,SmEuCrSnO6,-2.7004627555000003,0.23809017074999603,0.0,True,FM,10.0000006,216
mp-1516960,SmEuFeSnO6,-2.5376785775,0.269439219750001,0.0,True,FM,11.8601202,216
mp-1520876,SmEuHfCrO6,-3.298802617999999,0.156403281583314,0.0,True,FM,10.0000517,216
mp-1517536,SmEuHfFeO6,-3.116883010000001,0.239493703749998,0.0,True,FM,11.882995,216
mp-1516992,SmEuHfTiO6,-3.525504868333334,0.174182339083323,0.0,True,FM,6.7281441,216
mp-1187040,SmEuHg2,-0.492861021250004,0.0,0.0,True,FM,7.062319,225
mp-1522475,SmEuNbVO6,-3.040261787000001,0.168358924430554,0.0,True,FiM,4.0017837,216
mp-1187014,SmEuRh2,-0.5243088425000001,0.047455502708336005,0.0,True,FM,6.60488,225
mp-1522188,SmEuTiNbO6,-3.248522409333334,0.19059976922500202,0.0,True,FiM,6.2271838,216
mp-1187071,SmEuZn2,-0.278297847500001,0.015408517500000002,0.0,True,FM,7.1705576,225
mp-1521677,SmEuZrCrO6,-3.203870732000001,0.20176069100000002,0.0035,True,FM,9.9998818,216
mp-1206711,SmF2,-3.627615614444446,0.344215767222221,0.0,True,FM,0.843256799999999,225
mp-972626,SmGaAu2,-0.634731245624999,0.027100518000003,0.0,False,NM,4.4e-06,225
mp-1187008,SmGaRh2,-0.701234175625,0.002894242499999,0.0,False,NM,0.00013749999999900002,225
mp-1187078,SmGdAg2,-0.27406311249999804,0.001099814999999,0.0,True,FM,7.4326754,225
mp-1187075,SmGdIn2,0.670643889999997,1.266405764999998,0.0,True,FM,1.3493038,225
mp-1187041,SmGdZn2,-0.34437855374999704,0.0030021500000000003,0.0,True,FM,8.2019176,225
mp-24658,SmH2,-0.7623552291666671,0.0,0.0,False,NM,1.02e-05,225
mp-867857,SmH3,-0.6273383265625011,0.06053188,0.0,False,NM,0.0,225
mp-972623,SmHgAu2,-0.589171169374998,0.0,0.0,False,NM,1.2900000000000002e-05,225
mp-978536,SmHoHg2,-0.5692628550000051,0.0,0.0,False,NM,0.00012749999999900002,225
mp-978563,SmHoIn2,-0.45725126083333206,0.0,0.0,False,NM,1.3200000000000002e-05,225
mp-972641,SmHoIr2,-0.7466430524999981,0.042042715249998,0.0,False,NM,6.410000000000001e-05,225
mp-867130,SmHoMg2,-0.068354989999998,0.0,0.0,False,NM,1.4e-06,225
mp-972660,SmHoRh2,-0.8009072850000001,0.016985599999998,0.0,False,NM,0.0001216,225
mp-972649,SmHoRu2,-0.25038717999999904,0.066388655406248,0.0,False,NM,1.899999999999999e-06,225
mp-972653,SmHoTl2,-0.34298226416666905,0.0,0.0,False,NM,0.0007182,225
mp-978537,SmHoZn2,-0.33128447249999904,0.005041754999997,0.0,True,FM,0.574661499999999,225
mp-568719,SmInAg2,-0.422714734999999,0.0,0.0,False,NM,5e-07,225
mp-568596,SmInAu2,-0.694418602916669,0.0,0.0,False,NM,5.2e-06,225
mp-21475,SmInCu2,-0.352032584999999,0.028187010277793002,0.0,False,NM,4e-07,225
mp-1206095,SmInCu4,-0.278086651666666,0.0,0.0,False,NM,0.0,216
mp-1077380,SmInPt4,-0.795896735277768,0.0,0.0,False,NM,1e-07,216
mp-867978,SmInRh2,-0.6556337254166681,0.0,0.0,False,NM,0.0,225
mp-978805,SmLuHg2,-0.5538891354166681,0.0,0.0,False,NM,2.499999999999999e-06,225
mp-978547,SmLuIn2,-0.558235319166666,0.020365303999991,0.0,False,NM,5.6e-05,225
mp-972601,SmLuMg2,-0.059650247916666004,0.0028335520833330003,0.0,False,NM,5.85e-05,225
mp-978505,SmLuRu2,-0.30214917291666604,0.066499970749998,0.0,False,NM,0.0007009,225
mp-978544,SmLuTl2,-0.311957434583339,0.004280445250000001,0.0,False,NM,0.0002941,225
mp-978549,SmLuZn2,-0.33495401541666503,0.010332195,0.0,False,NM,9.26e-05,225
mp-11235,SmMg2Ag,-0.091075006666666,0.10093057111111,0.0,False,NM,4e-06,225
mp-978528,SmMg2Sc,-0.047935362499999,0.015200755000000002,0.0,False,NM,0.000165,225
mp-30779,SmMg3,-0.08270753749999801,0.0,0.0,False,NM,0.0,225
mp-867862,SmMgAg2,-0.29040380583333103,0.0,0.0,False,NM,1e-07,225
mp-867867,SmMgAu2,-0.746028767499999,0.0,0.0,False,NM,7.299999999999999e-06,225
mp-867131,SmMgCd2,-0.29840517249999804,0.0,0.0,False,NM,2.6e-06,225
mp-867181,SmMgHg2,-0.45963566375000203,0.0,0.0,False,NM,2.4e-06,225
mp-867240,SmMgRh2,-0.6096202499999991,0.0,0.0,False,NM,0.0,225
mp-867871,SmMgZn2,-0.34320936499999904,0.0,0.0,False,NM,2.1e-06,225
mp-749,SmN,-1.767472924374999,0.0,0.0,False,NM,0.0,225
mp-1206682,SmNiBi,-0.667981598333331,0.0,0.24929999999999902,False,NM,0.0,216
mp-1611,SmO,-3.107168025,0.11112569770833301,0.0,False,NM,1.3700000000000003e-05,225
mp-37381,SmOF,-4.145513748333334,0.055045295000002006,5.508699999999999,False,NM,2.4e-05,216
mp-710,SmP,-1.8091348239880922,0.0,0.0,False,NM,0.0,225
mp-867985,SmPbAu2,-0.610085793749997,0.0,0.0,False,NM,2.299999999999998e-06,225
mp-1187039,SmPd2Pb,-0.7241940437393241,0.024027517500002003,0.0,False,NM,1.8100000000000003e-05,225
mp-978554,SmRe3,0.43896639062499704,0.52396289,0.0,False,NM,0.003278499999999,225
mp-1269,SmS,-2.27385046625,0.0,0.0,False,NM,2.499999999999999e-06,225
mp-2281,SmSb,-1.418242280000001,0.0,0.0,False,NM,2e-07,225
mp-1207188,SmSbPt,-0.6470370750000001,0.4077880895,0.0,False,NM,0.0001935,216
mp-1218968,SmSbPt,-0.388480001666666,0.666345162833334,0.0,False,NM,9.17e-05,216
mp-1447,SmSe,-2.08223308953125,0.0,0.0,False,NM,2e-07,225
mp-13305,SmSnAu,-0.855774013333331,0.0,0.0655,False,NM,0.0,216
mp-972526,SmSnAu2,-0.6988432050000021,0.0,0.0,False,NM,3e-07,225
mp-978538,SmSnPd2,-0.822551235,0.002301257812498,0.0,False,NM,6.5e-06,225
mp-972520,SmSnRh2,-0.701018387500001,1.668437496604724e-06,0.0,False,NM,0.0203221,225
mp-972514,SmTa3,0.48052857625000206,0.48052857625000206,0.0,False,NM,0.0001335,225
mp-342,SmTe,-1.614376085,0.0,0.0,False,NM,1.6e-06,225
mp-1218983,SmThB12,-0.522705080714286,5.2315714285100525e-05,0.0,False,NM,1e-07,225
mp-867876,SmTlAg2,-0.246433632916667,0.015820380723042,0.0,False,NM,1.1e-06,225
mp-972542,SmTlAu2,-0.5651232795833361,0.0,0.0,False,NM,7.9e-06,225
mp-978529,SmTmHg2,-0.562760513749999,0.0,0.0,False,NM,2.4e-05,225
mp-1187031,SmTmIn2,-0.578292727499999,0.012957162749994,0.0,False,NM,1.9900000000000003e-05,225
mp-978512,SmTmMg2,-0.063507713750002,0.0,0.0,False,NM,1.2100000000000001e-05,225
mp-972510,SmTmRh2,-0.8282807412500031,0.024631377499996002,0.0,False,NM,1.65e-05,225
mp-978539,SmTmRu2,-0.281347411250001,0.06064318900000001,0.0,False,NM,2.299999999999998e-06,225
mp-972541,SmTmTl2,-0.32781408041667204,0.0,0.0,False,NM,0.0004346,225
mp-972522,SmTmZn2,-0.333783808750002,0.008225664999997,0.0,True,FM,0.2115983,225
mp-1219010,SmUAl4,-0.306012313333335,0.12223022041667801,0.0,True,FM,2.5663647,216
mp-972528,SmYAg2,-0.31124212499999904,0.0036848850000010002,0.0,False,NM,1.6e-06,225
mp-978515,SmYAl2,-0.426906162499999,0.042123012187502,0.0,False,NM,2.499999999999999e-06,225
mp-1219005,SmYCo4,-0.083649417500003,0.028704106666665,0.0,True,FiM,3.9591218,216
mp-1218992,SmYFe4,0.21832400916666703,0.25281762499999905,0.0,True,FM,0.053672399999999,216
mp-1187026,SmYHg2,-0.578897393749997,0.0,0.0,False,NM,0.00017769999999900002,225
mp-978833,SmYIn2,-0.6126495375000011,0.001436495,0.0,False,NM,2.1800000000000005e-05,225
mp-978522,SmYIr2,-0.7126894312500001,0.043052806249997,0.0,False,NM,0.0001493,225
mp-867861,SmYMg2,-0.08080288624999901,0.0,0.0,False,NM,5.6200000000000004e-05,225
mp-1187042,SmYRh2,-0.7672408662499991,0.012254405000000001,0.0,False,NM,0.000116099999999,225
mp-978564,SmYTl2,-0.36472041041666703,0.0,0.0,False,NM,0.0004886,225
mp-972540,SmYZn2,-0.33411859874999905,0.0034750999999990004,0.0,False,NM,0.036249199999999,225
mp-867140,SmZn2Ag,-0.296511144166666,0.025751989264706003,0.0,False,NM,3e-07,225
mp-978521,SmZn2Cd,-0.32159211874999905,0.00629619458333,0.0,False,NM,1e-07,225
mp-978560,SmZnAg2,-0.218598347083332,0.068371791029413,0.0,False,NM,0.0331421,225
mp-867860,SmZnAu2,-0.6066496987500001,0.0,0.0,False,NM,4.7e-06,225
mp-1022725,Sn,0.23677220000000002,0.23677220000000002,0.0,False,NM,1e-07,225
mp-1080527,Sn(Br3N)2,0.535501142777777,1.156291665833332,0.0,True,FM,6.463202499999999,225
mp-1080748,Sn(NCl3)2,0.6778327227777731,1.247447424444447,0.0,True,FiM,3.9996735,225
mp-1206257,Sn(NF3)2,-0.34753771722222104,1.267463822777779,0.0,True,FM,4.0000399,225
mp-631557,Sn2BSe,0.8336005475580911,1.061035165833331,0.0,False,NM,0.0121313,225
mp-2083,Sn2Ir,-0.310802113333333,0.0,0.0,False,NM,4e-07,225
mp-1080738,Sn2MoOsO6,-1.428745165,0.44221059449999706,0.0,True,FiM,0.0099066,225
mp-19962,Sn2Pt,-0.45046744666666405,0.0,0.0,False,NM,4e-07,225
mp-978917,Sn3B,0.9366946689583351,0.9366946689583351,0.0,False,NM,0.0005097,225
mp-1038778,Sn3Bi,0.09019095875000001,0.09019095875000001,0.0,False,NM,4.999999999999999e-06,225
mp-1187027,Sn3Ge,0.148180297500001,0.148180297500001,0.0,False,NM,0.0021958,225
mp-1187035,Sn3P,0.306804116339286,0.309085597083331,0.0,False,NM,0.0017917,225
mp-1187036,Sn3Rh,0.10135101875000001,0.42574277875000005,0.0,False,NM,0.0015643,225
mp-1187038,Sn3S,0.080744175546875,0.31678473312500005,0.0,False,NM,0.0003526,225
mp-1187055,Sn3Se,0.032881995234376,0.259655149374999,0.0,False,NM,0.0005317,225
mp-2182,SnAs,-0.037133581249999,0.020263348571425,0.0,False,NM,0.0,225