material_id,formula,formation_energy,ehull,band_gap,is_magnetic_x,magnetic_ordering,total_magnetization_x,spacegroup,heusler_type,is_magnetic_y,total_magnetization_y
mp-1183541,Cd2RhAu,-0.141118497499999,0.0,0.0,False,NM,7e-07,225,full,False,7e-07
mp-983602,CdAg2Au,-0.088548262499998,0.027605498000003,0.0,False,NM,0.0,225,full,False,0.0
mp-1183634,CdAgAu2,-0.137242403750001,0.014633118425905,0.0,False,NM,1e-07,225,full,False,1e-07
mp-867260,CdAgPd2,-0.246434972916664,0.0,0.0,False,NM,1e-07,225,full,False,1e-07
mp-542065,CdAgSb,-0.031579532777778,0.032333700138888,0.0,False,NM,0.000666799999999,216,half,False,0.000666799999999
mp-10685,CdCuSb,0.252541321249997,0.316454554166664,0.0,False,NM,0.0005225,216,half,False,0.0005225
mp-568800,CdCuSb,0.147573177916664,0.21148641083333,0.0,False,NM,0.000610099999999,216,half,False,0.0005225
mp-861909,CdGaRh2,-0.357465039374998,0.0,0.0,False,NM,3.94e-05,225,full,False,3.94e-05
mp-16268,CdGeP2,0.442749673511903,0.593581306249998,0.0,False,NM,7.8e-06,225,full,False,7.8e-06
mp-1183640,CdHgPd2,-0.273911183125,0.00520917,0.0,False,NM,1e-07,225,full,False,1e-07
mp-862374,CdInPd2,-0.462063496666664,0.0,0.0,False,NM,4e-07,225,full,False,4e-07
mp-977367,CdInRh2,-0.363751637499998,0.0,0.0,False,NM,0.000379,225,full,False,0.000379
mp-631388,CdIrRu,0.622512745477645,0.696568666737803,0.0,False,NM,0.0114301,216,half,False,0.0114301
mp-631410,CdNiP,0.551679837188494,0.8657665468055561,0.0,True,FM,0.087225699999999,216,half,True,0.087225699999999
mp-631403,CdPOs2,0.844021450505948,1.071785644999998,0.0,False,NM,0.002351,216,full,False,0.002351
mp-1183633,CdPd2Au,-0.2871393425,0.0,0.0,False,NM,1e-07,225,full,False,1e-07
mp-1183697,CdRh2Pb,-0.061599629999998,0.0,0.0,False,NM,0.0002475,225,full,False,0.0002475
mp-16246,CdSbAu,-0.128421373333334,0.012246647037038,0.0,False,NM,1e-07,216,half,False,1e-07
mp-1008472,CdSiP2,0.5245032522619061,0.7970854312500001,0.0,False,NM,9.47e-05,225,full,False,9.47e-05
mp-1226720,CdSnAu,-0.195652366666668,0.0,0.0,False,NM,1e-07,216,half,False,1e-07
mp-1226723,CdSnAu,0.009819416666668,0.205471783333337,0.0,False,NM,0.000138699999999,216,half,False,1e-07
mp-861877,CdSnRh2,-0.329812378749998,0.0,0.0,False,NM,0.0016895,225,full,False,0.0016895
mp-1183760,Ce2AgHg,-0.157455481041666,0.049034924375,0.0,True,FM,2.6665608,225,full,True,2.6665608
mp-867239,Ce2AgPb,-0.231864235416663,0.083033827499998,0.0,True,FM,3.0174834,225,full,True,3.0174834
mp-1183725,Ce2AgSn,-0.335912126666664,0.086913933333333,0.0,True,FM,3.0019376,225,full,True,3.0019376
mp-985438,Ce2CdHg,-0.312928782500002,0.045386645625001,0.0,True,FM,2.6434727,225,full,True,2.6434727
mp-1183867,Ce2CdIn,-0.372718236749999,0.043177451249999,0.0,True,FM,2.2459148,225,full,True,2.2459148
mp-1183762,Ce2CdPb,-0.227336059999997,0.065631495416667,0.0,True,FM,3.4733167,225,full,True,3.4733167
mp-1183809,Ce2HgPb,-0.333753030625002,0.010110550416663,0.0,True,FM,3.0567217,225,full,True,3.0567217
mp-984682,Ce2MgAl,-0.084988476249998,0.090170395208334,0.0,True,FM,0.8366996,225,full,True,0.8366996
mp-1183801,Ce2MgCd,0.025175216250001,0.127261632916667,0.0,True,FM,2.3399881,225,full,True,2.3399881
mp-1184007,Ce2MgIn,-0.109955620416664,0.06389138875,0.0,True,FM,1.5742492,225,full,True,1.5742492
mp-1183811,Ce2MgPb,-0.148065838749998,0.085696329999999,0.0,True,FM,2.1782567,225,full,True,2.1782567
mp-1183747,Ce2SnHg,-0.435819111875,0.042261160749998,0.0,True,FM,1.9818259,225,full,True,1.9818259
mp-1183716,Ce2TlAg,-0.117943408749999,0.074564691249999,0.0,True,FM,2.3410746,225,full,True,2.3410746
mp-985471,Ce2ZnHg,-0.203573703125,0.0470671875,0.0,True,FM,2.3292882,225,full,True,2.3292882
mp-1183763,Ce2ZnIn,-0.215180929166664,0.060946700749998,0.0,True,FM,1.1893728,225,full,True,1.1893728
mp-977439,Ce2ZnPb,-0.248632337499997,0.068825110416667,0.0,True,FM,1.8755513,225,full,True,1.8755513
mp-865862,CeAgAu2,-0.5002370729166671,0.007154323333331,0.0,True,FM,1.0825323,225,full,True,1.0825323
mp-865885,CeAgHg2,-0.277550001666667,0.0,0.0,True,FM,1.0854136,225,full,True,1.0854136
mp-865968,CeAlAg2,-0.199525888333331,0.053762931666666,0.0,True,FM,0.7840444,225,full,True,0.7840444
mp-861888,CeBiAu2,-0.580154864999999,0.0,0.0,True,FM,0.9660624,225,full,True,0.9660624
mp-604453,CeBiPd,-1.028045071666667,0.0,0.0,True,FM,1.0057012,216,half,True,1.0057012
mp-1018162,CeBiPt,-0.9325651566666632,0.0,0.0,True,FM,0.996621499999999,216,half,True,0.996621499999999
mp-31173,CeCd2Ag,-0.136087185416664,0.04135263609375,0.0,True,FM,0.9763369,225,full,True,0.9763369
mp-1206708,CeCd2Cu,-0.186459201666679,0.076291191979166,0.0,True,FM,0.790208199999999,216,full,True,0.790208199999999
mp-865552,CeCdAg2,-0.156921468333331,0.000857760468748,0.0,True,FM,1.4258465,225,full,True,1.4258465
mp-866185,CeCdAu2,-0.570034574999992,0.0,0.0,True,FM,1.184076,225,full,True,1.184076
mp-866274,CeCdHg2,-0.466994606249997,0.0,0.0,True,FM,1.0054903,225,full,True,1.0054903
mp-1183803,CeDyMg2,0.007687149583335,0.046905655,0.0,True,FM,0.992632699999999,225,full,True,0.992632699999999
mp-984702,CeDyZn2,-0.263002830416664,0.0285889175,0.0,True,FM,1.0449691,225,full,True,1.0449691
mp-1183776,CeErIn2,-0.465687490833332,0.0375585755,0.0,True,FiM,0.720094599999999,225,full,True,0.720094599999999
mp-984355,CeErMg2,0.008457877500001,0.03795619625,0.0,True,FM,0.945311599999999,225,full,True,0.945311599999999
mp-1183853,CeEuAg2,-0.099458992083333,0.122713128750003,0.0,True,FM,8.4755141,225,full,True,8.4755141
mp-1183861,CeEuCd2,-0.265510841874998,0.048233525625004,0.0,True,FM,8.4921003,225,full,True,8.4921003
mp-1183873,CeEuZn2,-0.199588381249999,0.039716445000001,0.0,True,FM,8.1610244,225,full,True,8.1610244
mp-20275,CeGeAu,-0.608225428333332,0.136998528333333,0.0,True,FM,1.0074776,216,half,True,1.0074776
mp-1184341,CeHgAu2,-0.509137670624999,0.0,0.0,True,FM,1.2723768,225,full,True,1.2723768
mp-1183753,CeHoIn2,-0.39161914958333,0.0,0.0,True,FM,0.878842599999999,225,full,True,0.878842599999999
mp-1183859,CeHoMg2,0.010234091250002,0.042300688749999,0.0,True,FM,0.9897849,225,full,True,0.9897849
mp-1183730,CeHoZn2,-0.263958206249997,0.02711795375,0.0,True,FM,1.0135371,225,full,True,1.0135371
mp-672191,CeInAg2,-0.267130192499998,0.0,0.0,True,FM,1.0969717,225,full,True,1.0969717
mp-636232,CeInAu2,-0.6333426766666691,0.0,0.0,True,FM,1.0351215,225,full,True,1.0351215
mp-19834,CeInCu2,-0.286050809999995,0.037035769374998,0.0,True,FM,0.1264778,225,full,True,0.1264778
mp-1183764,CeLuMg2,0.011481273333333,0.028354333333335,0.0,True,FM,0.883168,225,full,True,0.883168
mp-31175,CeMg2Ag,0.005123082083334,0.121906195833334,0.0,True,FM,1.0015982,225,full,True,1.0015982
mp-30504,CeMg2Cu,0.143394143906251,0.220316414375,0.0,True,FM,0.948942499999999,225,full,True,0.948942499999999
mp-1226521,CeMg2Fe,0.320442205000001,0.352932036249999,0.0,True,FiM,1.7318909,225,full,True,1.7318909
mp-1076916,GdBiPd,-1.004648475,0.0,0.0,True,FM,7.0,216,half,True,7.0
mp-620271,GdBiPt,-1.020906396666664,0.0,0.0,True,FM,7.0053504,216,half,True,7.0053504
mp-1184477,GdCdAg2,-0.257734304999999,0.0,0.0,True,FM,7.808691,225,full,True,7.808691
mp-866167,GdCdAu2,-0.686602019999995,0.0,0.0,True,FM,7.4276798,225,full,True,7.4276798
mp-865745,GdCdHg2,-0.409896328750001,0.0,0.0,True,FM,6.9610079,225,full,True,6.9610079
mp-866034,GdCdPd2,-0.654463927499999,0.036239378055554,0.0,True,FM,7.0881452,225,full,True,7.0881452
mp-1184494,GdCdPt2,-0.776240217499998,0.0452610025,0.0,True,FM,7.0840871,225,full,True,7.0840871
mp-1184998,GdCdRh2,-0.539593857499998,0.017015833750001,0.0,True,FM,7.2275252,225,full,True,7.2275252
mp-1184659,GdDyIn2,-0.5756186187499951,0.004577857499999,0.0,True,FM,7.3932279,225,full,True,7.3932279
mp-1184518,GdDyIr2,-0.787152615416665,0.0,0.0,True,FiM,6.707081599999999,225,full,True,6.707081599999999
mp-1184497,GdDyRh2,-0.8302849479166631,0.010205010000001,0.0,True,FiM,6.8523747,225,full,True,6.8523747
mp-1184527,GdDyTl2,-0.441235883749996,0.005356042499997,0.0,True,FM,7.4718576,225,full,True,7.4718576
mp-1184524,GdDyZn2,-0.360958308749996,0.006292025,0.0,True,FM,8.0427725,225,full,True,8.0427725
mp-1184516,GdErHg2,-0.536767297083322,0.013151487500003,0.0,True,FM,7.1919637,225,full,True,7.1919637
mp-1184762,GdErIn2,-0.5570772283333301,0.002992414999997,0.0,True,FM,7.4239904,225,full,True,7.4239904
mp-1184499,GdErIr2,-0.8192354099999971,0.0,0.0,True,FiM,6.712825,225,full,True,6.712825
mp-1184815,GdErRh2,-0.838685382499999,0.035867435,0.0,True,FM,7.0327804,225,full,True,7.0327804
mp-1184790,GdErRu2,-0.31988622,0.0,0.0,True,FiM,7.1446757,225,full,True,7.1446757
mp-1184521,GdErZn2,-0.35683741333333,0.012334192499999,0.0,True,FM,7.9586593,225,full,True,7.9586593
mp-863249,GdGaRh2,-0.7545565268749971,0.0,0.0,True,FM,7.0561189,225,full,True,7.0561189
mp-1184535,GdHoIr2,-0.780845451249998,0.0,0.0,True,FM,6.9928692,225,full,True,6.9928692
mp-1184533,GdHoTl2,-0.431151676249996,0.004715847500001,0.0,True,FM,7.4727209,225,full,True,7.4727209
mp-1065288,GdInAu2,-0.747285812500003,0.0,0.0,True,FM,7.2185934,225,full,True,7.2185934
mp-614489,GdInCu2,-0.330713011250001,0.01439973,0.0,True,FM,7.0641261,225,full,True,7.0641261
mp-624070,GdInPd2,-0.7820519666666651,0.0,0.0,True,FM,7.169654,225,full,True,7.169654
mp-1184543,GdLuAg2,-0.31449813,0.0,0.0,True,FM,7.3040365,225,full,True,7.3040365
mp-1184534,GdLuCd2,0.961911980833334,1.267871247500001,0.0,True,FM,1.6156734,225,full,True,1.6156734
mp-1184522,GdLuCu2,-0.246030914166667,0.0,0.0,True,FM,7.2553381,225,full,True,7.2553381
mp-1184485,GdLuIr2,-0.8383990116666661,0.0,0.0,True,FiM,6.72588,225,full,True,6.72588
mp-1185598,GdLuRh2,-0.8829054766666661,0.0327951525,0.0,True,FM,6.9522674,225,full,True,6.9522674
mp-1184510,GdLuRu2,-0.353869964166664,0.0,0.0,True,FiM,0.984853699999999,225,full,True,0.984853699999999
mp-20149,GdMg2Ag,-0.070372727916666,0.100817939999999,0.0,True,FM,7.1901835,225,full,True,7.1901835
mp-1184490,GdMgAg2,-0.281870002083331,0.0,0.0,True,FM,7.9035962,225,full,True,7.9035962
mp-1184513,GdMgAu2,0.528134741249999,1.238531485000001,0.0,True,FM,1.7355253,225,full,True,1.7355253
mp-865590,GdMgCd2,-0.282949141249999,0.0,0.0,True,FM,7.1398543,225,full,True,7.1398543
mp-1184495,GdMgHg2,-0.448524252500001,0.0,0.0,True,FM,7.0688327,225,full,True,7.0688327
mp-866059,GdMgRh2,-0.66018253625,0.0,0.0,True,FM,7.1938634,225,full,True,7.1938634
mp-865883,GdMgZn2,-0.326255691249999,0.0,0.0,True,FM,7.273138,225,full,True,7.273138
mp-567422,GdNiBi,-0.6714214433333361,0.0,0.0,True,FiM,7.0,216,half,True,7.0
mp-569197,GdNiSb,-0.952046443333332,0.0,0.0,True,FiM,7.0000001,216,half,True,7.0000001
mp-1184525,GdPaRu2,-0.350517937499994,0.0,0.0,True,FiM,6.8562774,225,full,True,6.8562774
mp-1184505,GdPaTc2,-0.067188080000001,0.0,0.0,True,FM,6.9007749,225,full,True,6.9007749
mp-20415,GdPbAu,-0.782890306666663,0.0,0.0,True,FM,7.0191239,216,half,True,7.0191239
mp-11839,GdSbPt,-1.189332089999997,0.0,0.0,True,FM,6.9999999,216,half,True,6.9999999
mp-568926,GdSbPt,-0.6652870499999981,0.5240450399999991,0.0,True,FM,6.9964229,216,half,True,6.9999999
mp-20514,GdSnAu,-0.915463206666667,0.0,0.0,True,FM,7.0112131,216,half,True,7.0112131
mp-1184508,GdSnPd2,-0.82564842,0.011732512031247,0.0,True,FM,7.2011409,225,full,True,7.2011409
mp-866089,GdSnRh2,0.56503649125,1.1991396384375,0.0,True,FM,0.7446577,225,full,True,0.7446577
mp-1184613,GdThRu2,-0.368140685,0.0,0.0,True,FiM,6.8963497,225,full,True,6.8963497
mp-1184520,GdTmCd2,-0.2986461425,0.010417527500001,0.0,True,FM,8.2377271,225,full,True,8.2377271
mp-1184532,GdTmIr2,-0.8316884075000051,0.0,0.0,True,FiM,6.7192176,225,full,True,6.7192176
mp-1184489,GdTmRh2,0.424742092499998,1.314682304999999,0.0,True,FM,1.0961958,225,full,True,1.0961958
mp-1184512,GdYCu2,-0.1798317075,0.018415403750001,0.0,True,FM,7.2987641,225,full,True,7.2987641
mp-1184526,GdYHg2,-0.5487775287500011,0.012239112499997,0.0,True,FM,8.2095149,225,full,True,8.2095149
mp-1184732,GdYIr2,0.483101870000002,1.083624357500003,0.0,True,FiM,6.7205872,225,full,True,6.7205872
mp-1184458,GdYRh2,-0.8065622549999991,0.00996111,0.0,True,FM,7.0237922,225,full,True,7.0237922
mp-1184716,GdYRu2,1.037854300000001,1.2979035747499998,0.0,True,FM,1.3347665,225,full,True,1.3347665
mp-1184742,GdZrRu2,-0.452910018749999,0.0,0.0,True,FiM,7.0809698,225,full,True,7.0809698
mp-631558,Hf2BiB,0.9424658864583292,1.486540625416665,0.0,False,NM,0.011053499999999,216,full,False,0.011053499999999
mp-1184620,Hf2CoCu,-0.242313967499999,0.113910752403848,0.0,True,FM,0.245894299999999,225,full,True,0.245894299999999
mp-864835,Hf2CoIr,-0.674844285,0.069375298749998,0.0,True,FM,1.8087043,225,full,True,1.8087043
mp-1184586,Hf2CoOs,-0.657288555000008,0.0,0.0,True,FM,1.0170944,225,full,True,1.0170944
mp-864877,Hf2CoRe,-0.403520345624997,0.061333699913793,0.0,True,FiM,0.4123089,225,full,True,0.4123089
mp-866088,Hf2CoTc,-0.5066660425,0.0,0.0,True,FM,0.388839799999999,225,full,True,0.388839799999999
mp-864939,Hf2CuIr,-0.575825659999997,0.027659626136513,0.0,False,NM,0.0001514,225,full,False,0.0001514
mp-864974,Hf2CuOs,-0.427814107499997,0.012591963653848,0.0,False,NM,6.2e-06,225,full,False,6.2e-06
mp-977567,Hf2CuRe,-0.291589190625,0.0,0.0,False,NM,1.5200000000000002e-05,225,full,False,1.5200000000000002e-05
mp-1184615,Hf2CuRh,-0.481268304999997,0.03392611365385,0.0,False,NM,0.0002467,225,full,False,0.0002467
mp-1184609,Hf2CuTc,-0.337594103749998,0.0,0.0,False,NM,2.54e-05,225,full,False,2.54e-05
mp-864890,Hf2FeIr,-0.6709873499999991,0.0,0.0,True,FiM,0.9846655,225,full,True,0.9846655
mp-865179,Hf2FeOs,-0.5233899349999971,0.0,0.0,False,NM,2.2800000000000005e-05,225,full,False,2.2800000000000005e-05
mp-1184678,Hf2FeRh,-0.576664187499996,0.0,0.0,True,FiM,0.997834,225,full,True,0.997834
mp-983362,Hf2FeTc,-0.409263881249999,0.0,0.0,False,NM,0.003507499999999,225,full,False,0.003507499999999
mp-981539,Hf2IrPd,-0.819708757499997,0.024055647569445,0.0,False,NM,0.000823699999999,225,full,False,0.000823699999999
mp-865178,Hf2IrRh,-0.915748999999998,0.0,0.0,False,NM,2e-07,225,full,False,2e-07
mp-973434,Hf2IrRu,-0.8583679349999981,0.030085634999998,0.0,False,NM,0.005747899999999,225,full,False,0.005747899999999
mp-1184602,Hf2MnCo,-0.299833166982756,0.069115643437502,0.0,True,FiM,0.3454969,225,full,True,0.3454969
mp-865138,Hf2MnIr,-0.650284114482758,0.0,0.0,False,NM,0.0,225,full,False,0.0
mp-1184587,Hf2MnOs,-0.463811286120687,0.036951670208331,0.0,True,FM,0.6068991,225,full,True,0.6068991
mp-977572,Hf2MnRh,-0.5476585286206871,0.0,0.0,False,NM,0.0,225,full,False,0.0
mp-864684,Hf2MoIr,-0.618836975,0.0,0.0,False,NM,0.0007727,225,full,False,0.0007727
mp-1184588,Hf2MoPt,-0.7021010049999951,0.0,0.0,False,NM,2e-07,225,full,False,2e-07
mp-865130,Hf2MoRh,-0.553943044999996,0.030073170869563,0.0,False,NM,1.1400000000000004e-05,225,full,False,1.1400000000000004e-05
mp-1184611,Hf2NiIr,-0.7126042599999951,0.02096498,0.0,False,NM,4.6100000000000016e-05,225,full,False,4.6100000000000016e-05
mp-976265,Hf2OsPd,-0.742003662500003,0.034108613749992,0.0,False,NM,0.0,225,full,False,0.0
mp-865131,Hf2OsRh,-0.879132967499998,0.0,0.0,False,NM,2.299999999999998e-06,225,full,False,2.299999999999998e-06
mp-1184604,Hf2OsRu,-0.8815631487500041,0.0,0.0,False,NM,0.0,225,full,False,0.0
mp-861978,Hf2ReIr,-0.747699680624995,0.0,0.0,False,NM,1.3600000000000002e-05,225,full,False,1.3600000000000002e-05
mp-977544,Hf2ReNi,-0.430365340625,0.025228360862067,0.0,False,NM,0.014147999999999,225,full,False,0.014147999999999
mp-864927,Hf2ReOs,-0.523476453124999,0.019220755099999,0.0,False,NM,0.0007557,225,full,False,0.0007557
mp-1184592,Hf2RePd,-0.558605920624998,0.0,0.0,False,NM,2.5800000000000004e-05,225,full,False,2.5800000000000004e-05
mp-977407,Hf2ReRh,-0.6860638156249971,0.0,0.0,False,NM,2e-07,225,full,False,2e-07
mp-1184619,Hf2ReRu,-0.5699266806250001,0.032823162599999,0.0,False,NM,0.0176528,225,full,False,0.0176528
mp-973443,Hf2ReTc,-0.403046024374999,0.027327045099999,0.0,False,NM,0.004445,225,full,False,0.004445
mp-975897,Hf2RuRh,-0.884543898750003,0.019983948221153,0.0,False,NM,1.1e-05,225,full,False,1.1e-05
mp-1184567,Hf2TcIr,-0.8600996162499961,0.0,0.0,False,NM,1.699999999999999e-06,225,full,False,1.699999999999999e-06
mp-1184612,Hf2TcNi,-0.5111100000000021,0.011364907499995,0.0,False,NM,0.000216699999999,225,full,False,0.000216699999999
mp-977541,Hf2TcOs,-0.717994072500005,0.0,0.0,False,NM,0.0001176,225,full,False,0.0001176
mp-1184594,Hf2TcPd,-0.653100327500006,0.0,0.0,False,NM,1.899999999999999e-06,225,full,False,1.899999999999999e-06
mp-864916,Hf2TcRh,-0.855599377500006,0.0,0.0,False,NM,0.0,225,full,False,0.0
mp-867327,Hf2TcRu,-0.739465143750003,0.0,0.0,False,NM,1.26e-05,225,full,False,1.26e-05
mp-866012,Hf2ZnRe,-0.296228678124997,0.0,0.0,False,NM,7.88e-05,225,full,False,7.88e-05
mp-1184568,Hf2ZnTc,-0.390232278750001,0.0,0.0,False,NM,1.96e-05,225,full,False,1.96e-05
mp-1100399,HfAgB,0.8752871963888961,1.455574813055559,0.0,False,NM,9.1e-05,216,half,False,9.1e-05
mp-10872,HfAlAu2,-0.564644290555548,0.018337413333334,0.0,False,NM,1.19e-05,225,full,False,1.19e-05
mp-5221,HfAlCo2,-0.5731287975,0.0,0.0,True,FiM,1.0004176,225,full,True,1.0004176
mp-10887,HfAlCu2,-0.328564839999998,0.0,0.0,False,NM,8e-07,225,full,False,8e-07
mp-983358,HfAlFe2,-0.371888859999999,0.010338156499999,0.0,True,FM,0.9745858,225,full,True,0.9745858
mp-982870,HfAlIr2,-0.92564136,0.027841117499999,0.0,False,NM,0.2454237,225,full,False,0.2454237
mp-5748,HfAlNi2,-0.6473235700000011,0.0,0.0,False,NM,1.1e-05,225,full,False,1.1e-05
mp-16501,HfAlPd2,-0.852085152499999,0.0,0.0,False,NM,1.1e-06,225,full,False,1.1e-06
mp-1206362,HfAlPt2,-1.117120210625003,0.078680964374996,0.0,False,NM,0.0013613,225,full,False,0.0013613
mp-864671,HfAlRh2,-1.097746739999998,0.0,0.0,False,NM,0.000169799999999,225,full,False,0.000169799999999
mp-864909,HfAlRu2,-0.8224986375000001,0.0,0.0,False,NM,0.0,225,full,False,0.0
mp-961719,HfAsRh,-0.365947762499999,0.479795041666668,0.0,False,NM,0.0010329,216,half,False,0.0010329
mp-631510,HfBe2Bi,0.8497631600000001,1.043480058357841,0.0,False,NM,0.0035507,216,full,False,0.0035507
mp-1184576,HfBeIr2,-0.7256527887499991,0.0165117475,0.0,False,NM,2.899999999999999e-06,225,full,False,2.899999999999999e-06
mp-865163,HfBeRh2,-0.772553663750001,0.0,0.0,False,NM,5.9e-06,225,full,False,5.9e-06
mp-961721,HfBiRh,-0.009774945151524,0.611370216666657,0.0,False,NM,0.000787199999999,216,half,False,0.000787199999999
mp-865164,HfCdCu2,-0.089468064999999,0.039304211250001,0.0,False,NM,0.000873299999999,225,full,False,0.000873299999999
mp-865174,HfCdRh2,-0.7365736325000001,0.0,0.0,False,NM,9.499999999999994e-06,225,full,False,9.499999999999994e-06
mp-20730,HfCo2Sn,-0.39512803375,0.0,0.0,True,FiM,2.0004765,225,full,True,2.0004765
mp-571185,HfCoSb,0.230188840676191,0.6413693338095251,0.0,False,NM,0.0032987,216,half,False,0.0032987
mp-30582,HfCuHg2,0.144864706249997,0.233823544593748,0.0,False,NM,6.7e-06,216,full,False,6.7e-06
mp-866051,HfFe2Sn,-0.249630366249997,0.009963828750001,0.020999999999999,False,NM,0.0,225,full,False,0.0
mp-3576,HfGaCo2,-0.4638731675,0.0,0.0,True,FiM,1.0214256,225,full,True,1.0214256
mp-865998,HfGaIr2,-0.723468209374999,0.012137372000001,0.0,True,FM,0.9574946,225,full,True,0.9574946
mp-3498,HfGaNi2,-0.557136344374998,0.008806291032259,0.0,False,NM,3.33e-05,225,full,False,3.33e-05
mp-865019,HfGaRh2,-0.8941999968749931,0.0,0.0,True,FM,0.446774399999999,225,full,True,0.446774399999999
mp-865010,HfGaRu2,-0.670260705,0.0,0.0,False,NM,9.79e-05,225,full,False,9.79e-05
mp-631549,HfGeB2,1.231745602500002,2.045381313749999,0.0,False,NM,0.001238599999999,216,full,False,0.001238599999999
mp-961676,HfGePt,-0.46742184833334,0.513674230000006,0.0,False,NM,4.39e-05,216,half,False,4.39e-05
mp-1184684,HfGeRu2,-0.723460469999999,0.0,0.0,False,NM,2.6e-06,225,full,False,2.6e-06
mp-574025,HfInAu2,-0.464667482968749,0.045808078593751,0.0,False,NM,0.0001682,225,full,False,0.0001682
mp-864715,HfInCo2,-0.281194352500001,0.0,0.0,True,FiM,1.1348593,225,full,True,1.1348593
mp-600125,HfInCu2,-0.161315811666666,0.0,0.0,False,NM,1.98e-05,225,full,False,1.98e-05