material_id,formula,formation_energy,ehull,band_gap,is_magnetic,magnetic_ordering,total_magnetization,spacegroup
mp-866160,Y2AgIr,-0.5774173904166641,0.016254105468750002,0.0,False,NM,2e-07,225
mp-865561,Y2AgRu,-0.321750000416666,0.0,0.0,False,NM,2.6e-06,225
mp-1187708,Y2AlAg,-0.39002901375000204,0.007891503749998,0.0,False,NM,7.699999999999999e-06,225
mp-1187707,Y2AlCd,-0.35568877249999903,0.0031007727083330002,0.0,False,NM,0.2662752,225
mp-1187765,Y2AlRu,-0.33440944499999903,0.092134095714285,0.0,False,NM,0.0082566,225
mp-865560,Y2AlZn,-0.42292720125000105,0.004866133749999,0.0,False,NM,0.000193,225
mp-1187706,Y2CdHg,-0.39494214062500005,0.008980365000001002,0.0,False,NM,2.44e-05,225
mp-1095185,Y2CrH6,-0.5934531421296241,0.042485434444436004,0.298199999999999,False,NM,9.54e-05,225
mp-1187723,Y2CuAu,-0.525264304999999,0.025544960000000002,0.0,False,NM,4.51e-05,225
mp-865594,Y2CuIr,-0.558921177499999,0.014566892569443001,0.0,False,NM,0.0002813,225
mp-1187718,Y2CuOs,-0.254398324531251,0.0315184775,0.0,False,NM,0.0009511,225
mp-1187771,Y2CuPt,-0.7944589899999991,0.026282211666671003,0.0,False,NM,1.4400000000000001e-05,225
mp-865587,Y2CuRh,-0.5259974874999981,0.010462957946428,0.0,False,NM,6.240000000000001e-05,225
mp-865588,Y2CuRu,-0.29852865250000005,0.0,0.0,False,NM,1.899999999999999e-06,225
mp-631661,Y2FeB,0.6790665102083331,0.9469059474999991,0.0,True,FiM,0.9991606,216
mp-1187711,Y2GaAg,-0.46587621229166604,0.009130138749998,0.0,False,NM,2.6700000000000002e-05,225
mp-1187705,Y2IrAu,-0.8030449375000001,0.028643452499999004,0.0,False,NM,0.001281499999999,225
mp-865600,Y2IrPd,-0.8661350749999981,0.0,0.0,False,NM,1.4e-06,225
mp-865603,Y2IrRh,-0.822826459999999,0.0,0.0,False,NM,0.000288399999999,225
mp-1187703,Y2IrRu,-0.5551631124999991,0.033660239843749,0.0,False,NM,0.004253199999999,225
mp-865602,Y2MgAl,-0.270610321249998,0.0,0.0,False,NM,4.1400000000000003e-05,225
mp-1187710,Y2MgCd,-0.18772050374999902,0.007403235,0.0,False,NM,0.002090899999999,225
mp-1187740,Y2MgHg,-0.261412444375002,0.021763804999999,0.0,False,NM,0.349146499999999,225
mp-865433,Y2MgRu,-0.166925093749999,0.0608459085625,0.0,False,NM,9e-07,225
mp-1187721,Y2MgTl,-0.23692605458333502,0.011352147916665,0.0,False,NM,0.0083929,225
mp-865432,Y2NiIr,-0.604801184999999,0.026191693466797002,0.0,False,NM,0.0097621,225
mp-865641,Y2NiRu,-0.339872037499999,0.0161098409375,0.0,True,FM,0.3206909,225
mp-1187751,Y2PdRh,-0.8423419049999991,0.017552658750000002,0.0,False,NM,1.97e-05,225
mp-866166,Y2PdRu,-0.6018856849999991,0.0,0.0,False,NM,0.00019979999999900002,225
mp-1187757,Y2RuAu,-0.5531843899999991,0.0297234015625,0.0,False,NM,0.0015975,225
mp-1187762,Y2RuPt,-0.736379217499999,0.0318465040625,0.0,False,NM,6.2e-06,225
mp-866173,Y2RuRh,-0.5632615750000001,0.0028095790624990003,0.0,False,NM,2.2200000000000004e-05,225
mp-865654,Y2TlAg,-0.43066110374999705,0.0,0.0,False,NM,0.0010936,225
mp-865651,Y2TlCd,-0.34603285583333304,0.0,0.0,True,FM,0.6576443,225
mp-1187722,Y2TlHg,-0.532747459375002,0.0,0.0,True,FM,0.697717199999999,225
mp-1187770,Y2TlIn,-0.529430117500002,0.0037172825000020004,0.0,False,NM,6.83e-05,225
mp-1187725,Y2TlZn,-0.421133771250001,0.026609762916667,0.0,False,NM,0.005285,225
mp-1187704,Y2ZnAg,-0.344864812499999,0.012420437499997002,0.0,False,NM,1.6400000000000002e-05,225
mp-1187709,Y2ZnAu,-0.6466200587499991,0.032596155,0.0,False,NM,2.8100000000000002e-05,225
mp-1187716,Y2ZnCu,-0.269290342499999,0.0220699775,0.0,False,NM,0.000146599999999,225
mp-1187768,Y2ZnGa,-0.489682309374998,0.006382133749999,0.0,False,NM,0.017681799999999002,225
mp-1187731,Y2ZnHg,-0.47649507312500106,0.010055722499998001,0.0,False,NM,4.2e-06,225
mp-865671,Y2ZnIn,-0.49831381625000004,0.024287124687514,0.0,False,NM,0.000406,225
mp-865659,Y2ZnIr,-0.6074667624999991,0.016318813958336002,0.0,False,NM,4.2e-06,225
mp-1187764,Y2ZnPt,-0.7674051349999991,0.022830385,0.0,False,NM,0.0003049,225
mp-1187730,Y2ZnRh,-0.577134369999998,0.011059734464287001,0.0,False,NM,1.899999999999999e-06,225
mp-865592,Y2ZnRu,-0.337626422499998,0.0,0.0,False,NM,1.45e-05,225
mp-1207804,Y3(SbPd2)4,-0.8645598414166631,0.037086251166670005,0.0,False,NM,0.0006544,225
mp-1094443,Y3Mg,0.10172959875000001,0.13891834,0.0,False,NM,0.403847099999999,225
mp-725512,Y3NF10,-3.409341324285715,0.411011582857145,0.0,True,FM,4.0285708,225
mp-1094256,Y3Sn,-0.20320466374999901,0.29240709416666705,0.0,True,FM,0.9941989999999991,225
mp-1207802,Y4CdIr,-0.48393819416666606,0.0,0.0,False,NM,0.0001372,216
mp-1207794,Y4CdNi,-0.263251794999995,0.0,0.013399999999999001,False,NM,8.140000000000001e-05,216
mp-1207818,Y4CdPd,-0.42362452458333105,0.0,0.0,False,NM,1e-06,216
mp-1207813,Y4CdPt,-0.575112467916667,0.0,0.0,False,NM,7.9e-06,216
mp-568156,Y4CdRu,-0.29082431416665805,0.0,0.0,False,NM,0.0003791,216
mp-672679,Y4InIr,-0.55437699236111,0.0,0.0,False,NM,1.1891743,216
mp-1207998,Y4MgCo,-0.10759929333333001,0.0,0.0,False,NM,0.0212872,216
mp-1207822,Y4MgIr,-0.39153047916666606,0.0,0.0,False,NM,0.3281867,216
mp-1207825,Y4MgNi,-0.16934569041666803,0.0,0.030100000000000002,False,NM,0.0535895,216
mp-1207787,Y4MgPd,-0.332703065000001,0.003026705833333,0.0463,False,NM,0.0021896,216
mp-1207810,Y4MgPt,-0.48269295999999906,0.0,0.014600000000000002,False,NM,7.410000000000001e-05,216
mp-1207807,Y4MgRh,-0.359842071249997,0.0,0.0,False,NM,2.773691099999999,216
mp-30641,Y6Fe23,-0.032771959310345,0.009850476724137,0.0,True,FiM,51.1135869,225
mp-1193646,Y6Mn14Fe9,0.07842364410226,0.100876048067776,0.0,True,FiM,23.7357471,225
mp-1355,Y6Mn23,0.097653375498086,0.097653375498085,0.0,True,FiM,35.2978771,225
mp-1207874,Y6Si7Ni16,-0.660865270344827,0.015068447068967001,0.0,False,NM,0.0637257,225
mp-1192854,Y6Zn23,-0.35030274120689703,0.016560643362067,0.0,False,NM,4e-07,225
mp-1187811,YAg3,-0.206751426249997,0.059440931413043005,0.0,False,NM,1e-07,225
mp-865502,YAgHg2,-0.38327322500000305,0.0,0.0,False,NM,3.9e-06,225
mp-865504,YAlAg2,-0.344085607499998,0.019086362892679003,0.0,False,NM,6e-07,225
mp-1187809,YAlAu2,-0.806032865552545,0.031697315208333,0.0,False,NM,0.0005354,225
mp-933,YAs,-1.818117546249999,0.0,0.0,False,NM,1e-06,225
mp-7817,YB12,-0.259459963846154,0.0,0.0,False,NM,0.0,225
mp-13560,YB2Pd7,-0.39812322243747,0.136168688000001,0.0,False,NM,1.1000000000000001e-05,225
mp-23241,YBi,-1.0989856025,0.0,0.0,False,NM,0.0,225
mp-1008624,YBiPd,-1.041455978333331,0.0,0.0,False,NM,1e-07,216
mp-30465,YBiPd2,-0.7548858162499991,0.10964418999999301,0.0,False,NM,8e-07,225
mp-1206679,YBiPt,-1.1693975149999951,0.0,0.0,False,NM,2e-07,216
mp-998893,YC,0.06688398249999901,0.3605948075,0.0,False,NM,0.0005036,225
mp-998894,YC,0.5168733725000001,0.8105841975000001,0.0,False,NM,0.013546899999999001,216
mp-571059,YCd3,-0.234480048749995,0.020065075000001,0.0,False,NM,7e-07,225
mp-865503,YCdAg2,-0.271089368333331,0.0,0.0,False,NM,1.3000000000000001e-05,225
mp-865522,YCdAu2,-0.6523260525000011,0.0,0.0,False,NM,8.7e-06,225
mp-1100401,YCdB,-0.037992936388887004,0.383142056666669,0.43160000000000004,False,NM,0.0008742,216
mp-961655,YCdGa,0.06630533416666701,0.539658792222221,0.0,False,NM,9.36e-05,216
mp-865525,YCdHg2,-0.35226618875000004,0.0,0.0,False,NM,6e-07,225
mp-865520,YCdPd2,-0.7095643300000011,0.0,0.0,False,NM,1.6e-06,225
mp-865524,YCdPt2,-0.789851937499999,0.012575528749997001,0.0,False,NM,6e-07,225
mp-1187836,YCdRh2,-0.520307305000001,0.017756516249998,0.0,False,NM,1.93e-05,225
mp-1189828,YCu6ClO8,-1.466940753124999,0.0,0.0,True,FM,1.896471899999999,225
mp-972420,YErAg2,-0.321682360833331,0.000587837500001,0.0,False,NM,1.0800000000000002e-05,225
mp-972415,YErAl2,-0.43156057333333503,0.042415175714282,0.0,False,NM,6.3e-06,225
mp-1215901,YErAl4,-0.576877250555556,0.001030791666666,0.0,False,NM,6.599999999999999e-06,216
mp-1187840,YErCd2,-0.300488962499998,0.006747117499999001,0.0,False,NM,3.2000000000000005e-05,225
mp-1187841,YErCu2,-0.24882276333333603,0.016397854999997002,0.0,False,NM,5.9e-06,225
mp-979934,YErHg2,-0.577414604583331,0.0,0.0,False,NM,1.23e-05,225
mp-979424,YErIn2,-0.576009958333333,0.010994172187501,0.0,False,NM,6.360000000000001e-05,225
mp-979420,YErIr2,-0.8399209525000001,0.020375997500000003,0.0,True,FM,0.245007299999999,225
mp-980055,YErMg2,-0.059598647499998006,0.00351738,0.0,False,NM,4.7e-06,225
mp-980645,YErRh2,-0.8770607099999991,0.011662002499999002,0.0,False,NM,0.0014215,225
mp-971926,YErRu2,-0.319282959999999,0.024975883124999,0.0,False,NM,2.299999999999998e-06,225
mp-981548,YErTl2,-0.327305839166668,0.0,0.0,False,NM,0.0014019,225
mp-979421,YErZn2,-0.38261310333333404,0.007656465,0.0,False,NM,3.8700000000000006e-05,225
mp-979422,YGaAu2,-0.6459727768750001,0.03492146708333,0.0,False,NM,0.0016426,225
mp-866156,YGaRh2,-0.7753529693749991,0.0,0.0,False,NM,2.4e-06,225
mp-24650,YH2,-0.7996299991666661,0.0,0.0,False,NM,7e-07,225
mp-636698,YHf2Pb,0.19621256964286002,0.534009967678578,0.0,False,NM,0.002845599999999,225
mp-1100402,YHgB,-0.12020565395834101,0.46849930666666106,0.3563,False,NM,6.890000000000003e-05,216
mp-979713,YHgPd2,-0.668003753124999,0.015186518333333001,0.0,False,NM,6e-07,225
mp-979425,YHoAg2,-0.31519344458333,0.000338845000001,0.0,False,NM,2.2e-06,225
mp-979715,YHoAl2,-0.43612007874999703,0.040204445499998,0.0,False,NM,5.6200000000000004e-05,225
mp-979429,YHoCd2,-0.29796046124999803,0.005984994999998001,0.0,False,NM,1.4100000000000002e-05,225
mp-1215908,YHoCo4,-0.148563127499999,0.025211765833332,0.0,True,FiM,4.0490796,216
mp-980067,YHoCu2,-0.244828841250001,0.016416819999999003,0.0,False,NM,6.71e-05,225
mp-1187845,YHoHg2,-0.5835085024999951,0.0,0.0,False,NM,1.6600000000000004e-05,225
mp-1187846,YHoIn2,-0.44907740958332903,0.0,0.0,False,NM,1.45e-05,225
mp-1187856,YHoIr2,-0.820265696249994,0.018643417500005,0.0,True,FM,0.2339325,225
mp-1187850,YHoMg2,-0.059508383749999005,0.00312947,0.0,False,NM,0.0,225
mp-1187859,YHoRh2,-0.8570938837499991,0.01199699,0.0,False,NM,1.4100000000000002e-05,225
mp-979426,YHoRu2,-0.30136993624999603,0.027473526906252002,0.0,False,NM,1.5e-06,225
mp-979427,YHoZn2,-0.34343014374999703,0.00077103,0.0,False,NM,0.024856999999999,225
mp-569823,YInAg2,-0.412035615,0.0,0.0,False,NM,2.2700000000000003e-05,225
mp-22493,YInAu2,-0.781283282499998,0.0,0.0,False,NM,4.31e-05,225
mp-19946,YInCu2,-0.37696516166668204,0.024965638055554,0.0,False,NM,0.0001307,225
mp-1071645,YInCu4,-0.30198056500000003,0.0,0.0,False,NM,0.0,216
mp-568880,YInPd2,-0.866197379999999,0.0,0.0,False,NM,1.699999999999999e-06,225
mp-1215995,YInPdAu,-0.827749280426825,0.014326173333337001,0.0,False,NM,0.0021391,216
mp-866163,YInRh2,-0.7181182341666641,0.0,0.0,False,NM,2e-07,225
mp-979432,YLuCd2,-0.29399233416666604,0.006635475000000001,0.0,False,NM,4.18e-05,225
mp-979433,YLuCu2,-0.263331611666668,0.0,0.0,False,NM,5.9300000000000005e-05,225
mp-1187857,YLuHg2,-0.5668641454166661,0.000160259999994,0.0,False,NM,5.72e-05,225
mp-971819,YLuIn2,-0.5489967316666651,0.014676375499995,0.0,False,NM,5.3200000000000006e-05,225
mp-1187861,YLuIr2,-0.876609634166667,0.028740394999999003,0.0,False,NM,0.1817935,225
mp-866158,YLuMg2,-0.049277141666665004,0.003210907500002,0.0,False,NM,3.4300000000000014e-05,225
mp-1187868,YLuRh2,-0.909278501666666,0.0205920225,0.0,False,NM,0.0014211999999990002,225
mp-1187858,YLuRu2,-0.35431929166666704,0.030635501562500004,0.0,False,NM,0.0039876,225
mp-979430,YLuTl2,-0.30031350333334,0.0,0.0,False,NM,0.000325,225
mp-979431,YLuZn2,-0.39111755416666505,0.006667844999999,0.0,False,NM,7.99e-05,225
mp-1094391,YMg,1.2580956025,1.332473085000001,0.0,False,NM,0.0001411,216
mp-1094402,YMg,0.38154734250000005,0.45592482500000103,0.0,False,NM,0.002437,225
mp-1079257,YMg(NiH)4,-0.271079225999999,0.105626100750003,0.0,False,NM,0.0173075,216
mp-979435,YMg2Sc,-0.043360238749999,0.009669714375000001,0.0,False,NM,2e-07,225
mp-865376,YMg3,-0.05749684374999801,0.0,0.0,False,NM,1.1000000000000001e-05,225
mp-1079382,YMg7,0.052839401875000004,0.08158782374999901,0.0,False,NM,0.094907899999999,225
mp-866162,YMgAg2,-0.29363824458333104,0.0,0.0,False,NM,1.3200000000000002e-05,225
mp-866171,YMgAu2,-0.762215591249999,0.0,0.0,False,NM,2.75e-05,225
mp-865512,YMgCd2,-0.282001951249999,0.0,0.0,False,NM,0.0,225
mp-631382,YMgCu,0.5587431983333331,0.7488922166666651,0.0,False,NM,0.0008975,216
mp-13172,YMgCu4,-0.222078840833333,0.0,0.0,False,NM,2.1e-06,216
mp-866164,YMgHg2,-0.44357121000000405,0.0,0.0,False,NM,6.5e-06,225
mp-3433,YMgNi4,-0.37675147083333205,0.0,0.0,True,FM,0.701502499999999,216
mp-866165,YMgRh2,-0.668539486249998,0.0,0.0,False,NM,7e-07,225
mp-962061,YMgTl,0.34650598388888704,0.669799362222222,0.0,False,NM,0.0048893,216
mp-865515,YMgZn2,-0.332038891249999,0.0,0.0,False,NM,4.6200000000000005e-05,225
mp-1062072,YMn2,0.7525991870370321,0.7525991870370341,0.0,True,FiM,6.5682057,216
mp-1077362,YMnNi4,-0.259211007988505,0.032461854315131,0.0,True,FM,5.4312116,216
mp-13099,YN,-1.751906094374998,0.24771123500000003,2.068699999999999,False,NM,0.0,216
mp-2114,YN,-1.999617329374999,0.0,0.15100000000000002,False,NM,0.0,225
mp-979931,YNbRu2,-0.256060994999998,0.008713050520832,0.0,False,NM,5e-07,225
mp-30460,YNiBi,-0.658193246666665,0.0,0.2016,False,NM,0.0,216
mp-961657,YNiP,-0.9055863148809511,0.299801186666666,0.6031999999999991,False,NM,2.5700000000000005e-05,216
mp-11520,YNiSb,-0.9493987499999981,0.0,0.29450000000000004,False,NM,0.0,216
mp-38194,YOF,-4.158211506666666,0.055881361666669,5.6328,False,NM,0.0002896,216
mp-994,YP,-1.857153058988094,0.0,0.0,False,NM,7e-07,225
mp-865516,YPaRu2,-0.36557503750000103,0.0,0.0,False,NM,0.001302199999999,225
mp-979437,YPaTc2,-0.138904952499999,0.063746252499981,0.0,False,NM,3.34e-05,225
mp-621592,YPbAu,-0.8253234799999991,0.0,0.0,False,NM,2e-07,216
mp-22712,YPd2Pb,-0.731011029999997,0.018349293119648002,0.0,False,NM,2.1600000000000003e-05,225
mp-1187876,YRh2Pb,-0.529851214999998,0.008212606250001,0.0,True,FM,0.9063732,225
mp-631465,YRhW2,0.646481215000001,1.061827845000001,0.0,False,NM,0.0015055,225
mp-1534,YS,-2.24246193140625,0.0,0.0,False,NM,4.1e-06,225
mp-215,YSb,-1.386354884999999,0.0,0.0,False,NM,0.0,225
mp-1207056,YSbPd,-1.239788086666664,0.0,0.47440000000000004,False,NM,0.0,216
mp-1215892,YSbPd,-0.48368950666666405,0.7560985799999991,0.0,False,NM,0.00015659999999900002,216
mp-865513,YSbPd2,-0.890808375401782,0.11667347062500201,0.0,False,NM,7.240000000000001e-05,225
mp-4964,YSbPt,-1.3647838966666601,0.0,0.10979999999999901,False,NM,0.0,216
mp-631471,YScBe,0.8983674533333331,0.976537722666667,0.0,False,NM,0.0002658,216
mp-1215942,YScFe4,0.023911870833334,0.18499887583333302,0.0,True,FiM,7.1179336,216
mp-1187869,YScZn2,-0.34974998624999903,0.013767085000000002,0.0,False,NM,5.6800000000000005e-05,225
mp-2637,YSe,-2.003811054531251,0.0,0.0,False,NM,6e-07,225
mp-1100439,YSeBr,-1.375550599114583,0.8502916783333311,1.545799999999999,False,NM,1.3e-06,216
mp-962058,YSeCl,-1.518122209131955,0.8287713572222171,1.8941000000000001,False,NM,0.000252899999999,216
mp-1094257,YSn3,-0.164952151249999,0.28196730999999803,0.0,False,NM,0.000290899999999,225
mp-865514,YSnAu2,-0.681623648749997,0.0,0.0,False,NM,3.799999999999998e-06,225
mp-5538,YSnPd2,-0.8632583037500101,0.0,0.0,False,NM,1.0900000000000002e-05,225
mp-865518,YSnRh2,-0.7654108362500001,0.0,0.0,False,NM,0.0003773,225
mp-865519,YTaRu2,-0.323218719333331,0.0,0.0,False,NM,0.0,225
mp-1708,YTe,-1.483786158333332,0.026799620000002,0.0,False,NM,1.2e-06,225
mp-865530,YThRu2,-0.40599607749999905,0.012931485312495002,0.0,False,NM,2.8100000000000002e-05,225
mp-980661,YTlAg2,-0.262278455,0.021391662634822003,0.0,False,NM,5e-07,225
mp-962074,YTlCd,0.09217689222222,0.377131825333332,0.0,False,NM,0.000789,216
mp-1187871,YTmAg2,-0.33780385,0.003602417499998,0.0,False,NM,6.59e-05,225
mp-980662,YTmAl2,-0.43512229500000205,0.037299844000003,0.0,False,NM,1.899999999999999e-06,225
mp-1187878,YTmCd2,-0.296566995,0.0071652175,0.0,False,NM,2.55e-05,225
mp-982007,YTmCu2,-0.256047185000003,0.017320194999999,0.0,False,NM,0.000120699999999,225
mp-981208,YTmHg2,-0.576831426250002,0.0,0.0,False,NM,3.7900000000000006e-05,225
mp-982069,YTmIr2,-0.853885470000001,0.022933957500001,0.0,False,NM,0.1723553,225
mp-980942,YTmMg2,-0.053347007500001,0.0037974825,0.0,False,NM,1.0300000000000001e-05,225
mp-980943,YTmRh2,-0.891450337500002,0.012659769999999002,0.0,False,NM,0.0018158,225
mp-1187865,YTmRu2,-0.332661817500001,0.021396410499999,0.0,False,NM,1.8e-06,225
mp-1187870,YTmTl2,-0.421888232500002,0.0038007457500190004,0.0,False,NM,0.0040267,225
mp-1187863,YTmZn2,-0.3881642075,0.007782067499999001,0.0,False,NM,0.0002961,225
mp-1215749,YUAl4,-0.310693054999999,0.12062937541666902,0.0,True,FM,2.5750867,216
mp-179,YZn,-0.10853366750000101,0.2786244,0.0,False,NM,0.0013105,225
mp-1187874,YZnPd2,-0.7128568299999981,0.038537230312498005,0.0,False,NM,0.0002647,225
mp-865517,YZnRh2,-0.6096640774999981,0.021126696875000003,0.0,False,NM,0.000988599999999,225
mp-1215709,YZrFe4,-0.153324173333332,0.011133083333335,0.0,True,FiM,7.0341499,216
mp-866159,YZrRu2,-0.45528948499999905,0.024224551562499003,0.0,False,NM,4.2e-06,225
mp-162,Yb,0.040395814999996005,0.040395814999996005,0.0,False,NM,0.000363,225
mp-1193375,Yb2(Ni7B2)3,-0.349119779827586,0.0,0.0,True,FM,1.3343568000000001,225
mp-1187879,Yb2AgAu,-0.6922316712499991,0.0,0.0,False,NM,1e-07,225
mp-865546,Yb2AgBi,-0.38564354500000003,0.119004674999999,0.0,True,FM,1.7788703,225
mp-865630,Yb2AgGe,-0.5485388037500021,0.067651486041665,0.0,True,FM,0.4319783,225
mp-979961,Yb2AgHg,-0.48437973062500106,0.0,0.0,False,NM,0.0,225
mp-865616,Yb2AgIr,-0.7698650212500051,0.0,0.0,False,NM,4e-07,225
mp-865662,Yb2AgPb,-0.419141123749994,0.0,0.0,True,FM,0.9942128,225
mp-979989,Yb2AgPd,-0.6740214587499971,0.016753002499999,0.0,False,NM,2e-07,225
mp-865660,Yb2AgPt,-0.9154792662499951,0.000866716875002,0.0,False,NM,4e-07,225
mp-866206,Yb2AgRh,-0.688496306249998,0.040936869999999,0.0,False,NM,0.0,225
mp-1187877,Yb2AgSb,-0.512832003749998,0.30743477749999903,0.0,False,NM,0.002331799999999,225
mp-866212,Yb2AgSn,-0.517775671249999,0.06469201869048201,0.0,True,FM,0.700085499999999,225
mp-865799,Yb2AsAu,-0.924894145625003,0.459351693125,0.0514,False,NM,3.13e-05,225
mp-865800,Yb2BiAu,-0.643898396250001,0.135393765178577,0.0055000000000000005,True,FM,1.2165222,225
mp-1187885,Yb2CdGa,-0.49760260250000204,0.0,0.0,False,NM,1.899999999999999e-06,225
mp-864732,Yb2CdGe,-0.47372098249999706,0.145771984166664,0.0,False,NM,2.1400000000000002e-05,225
mp-979968,Yb2CdHg,-0.46940276687499904,0.006666755000004,0.0,False,NM,4.299999999999999e-06,225
mp-866175,Yb2CdIn,-0.47470787000000303,0.0,0.0,False,NM,0.0002271,225
mp-865648,Yb2CdPb,-0.38951053750000103,0.0,0.0,False,NM,1.699999999999999e-06,225
mp-865918,Yb2CdSn,-0.48353867249999904,0.08891211791667,0.0,False,NM,3e-07,225
mp-865845,Yb2CuIr,-0.765896454999996,0.0,0.0,False,NM,0.0,225
mp-1187894,Yb2CuPd,-0.653741762500001,0.010591905624998002,0.0,False,NM,1.4e-06,225
mp-865854,Yb2CuRh,-0.6851331925,0.017859190624999,0.0,False,NM,0.0,225
mp-979967,Yb2GaHg,-0.5865676093750021,0.0,0.0,False,NM,3.299999999999999e-06,225
mp-1187891,Yb2GeAu,-0.826116737500001,0.022377905624999,0.0,False,NM,1e-06,225
mp-972046,Yb2HgBi,-0.47246134562499903,0.085576545499996,0.0,True,FM,0.3999389,225
mp-865909,Yb2HgGe,-0.5766059493750001,0.057055497500002,0.0,False,NM,0.00020319999999900002,225
mp-865908,Yb2HgPb,-0.476309651874998,0.0,0.0,False,NM,0.0097072,225
mp-1187890,Yb2InGa,-0.551654522500001,0.0,0.0,False,NM,1.4400000000000001e-05,225
mp-972370,Yb2InHg,-0.544791376875004,0.007314125,0.0,False,NM,1.0300000000000001e-05,225
mp-1187901,Yb2InPb,-0.453736302500004,0.0,0.0,False,NM,0.00022879999999900002,225
mp-981234,Yb2InSn,-0.527088875000004,0.10731455458333901,0.0,False,NM,8.3e-06,225
mp-864756,Yb2MgIn,-0.36186054375000504,0.0,0.0,False,NM,0.0008437,225
mp-1187897,Yb2MgTl,-0.24560066875000003,0.026366873750006,0.0,False,NM,0.018979799999999002,225
mp-864800,Yb2PdAu,-0.988668887500004,0.019489848124997003,0.0,False,NM,1.6e-06,225
mp-864786,Yb2PdPt,-1.2305554850000031,0.008003004374998,0.0,False,NM,1e-07,225
mp-864882,Yb2PdRh,-1.033805864999998,0.0178398175,0.0,False,NM,1.2400000000000002e-05,225