material_id,formula,formation_energy,ehull,band_gap,is_magnetic,magnetic_ordering,total_magnetization,spacegroup
mp-1114186,Rb2YInI6,-1.449890531166666,0.043320097499998,2.6542,False,NM,0.003575,225
mp-1114112,Rb2YTlBr6,-1.944472153833334,0.019315891499999002,3.5841000000000003,False,NM,0.000114499999999,225
mp-1114000,Rb2YTlCl6,-2.258796112833334,0.040754943399997,4.1524,False,NM,0.0009268,225
mp-1113925,Rb2YTlF6,-3.320889706833333,0.0103782965,4.6661,False,NM,0.0027737,225
mp-1114164,Rb2YTlI6,-1.488978744833334,0.046976674999999,3.0376,False,NM,1.0100000000000002e-05,225
mp-27831,Rb2ZrCl6,-2.356486154999998,0.0,3.5620000000000003,False,NM,0.0,225
mp-975052,Rb3Al,0.353391119374999,0.353391119374999,0.0,False,NM,2.0009248,225
mp-1110736,Rb3AlBr6,-1.7909824242499992,0.087903751000001,3.3543,False,NM,0.0019767,225
mp-1113999,Rb3AlCl6,-2.14374696825,0.065122649,4.5619,False,NM,0.0010807,225
mp-1113633,Rb3AlF6,-3.395627361249998,0.0,6.1238,False,NM,0.0,225
mp-1114162,Rb3AlI6,-1.30915006925,0.09044587775000101,1.9042000000000001,False,NM,0.0019057,225
mp-1110735,Rb3AsBr6,-1.519302909999999,0.0419742705,3.0833,False,NM,0.002272499999999,225
mp-1110695,Rb3AsCl6,-1.785246376,0.031589094250001004,3.488699999999999,False,NM,0.0013139,225
mp-1113850,Rb3AsF6,-2.750770718999998,0.0,4.2827,False,NM,0.008626499999999001,225
mp-1114159,Rb3AsI6,-1.134053107,0.07491441950000101,2.1626,False,NM,0.0031484,225
mp-1114110,Rb3AuBr6,-1.3238426192500001,0.15915056600000102,0.0,True,FM,1.9985077,225
mp-1114492,Rb3AuCl6,-1.546091129250002,0.154120405499998,0.1947,True,FM,2.0,225
mp-1113832,Rb3AuF6,-2.292593205249999,0.098706978999998,0.7746999999999991,True,FM,2.0018736,225
mp-975037,Rb3Ba,0.15263479937499902,0.15263479937499902,0.0,False,NM,0.0855601,225
mp-23304,Rb3Bi,-0.305715446875001,0.013430248749997,0.0,False,NM,0.0,225
mp-1114108,Rb3BiBr6,-1.65038870625,0.074868035874998,3.4159,False,NM,0.0018219,225
mp-1110734,Rb3BiCl6,-1.921167814249997,0.0,4.1433,False,NM,0.0,225
mp-1113922,Rb3BiF6,-2.868821066250001,0.0190369575,4.494400000000001,False,NM,3e-07,225
mp-975028,Rb3Cd,0.06846472437500001,0.071452985480769,0.0,False,NM,0.0363729,225
mp-1110733,Rb3CeCl6,-2.40703029325,0.06583122125,4.1027,True,FM,1.0002731,225
mp-1078913,Rb3CeF6,-3.447577348249999,0.033893582749996,0.0,True,FM,0.982108499999999,225
mp-975050,Rb3Co,0.857264924374999,0.857264924374999,0.0,True,FM,1.8643143,225
mp-1113630,Rb3CoF6,-2.67234887424999,0.0,2.9106,False,NM,0.0,225
mp-1113631,Rb3CrF6,-3.073445499249997,0.0,4.3963,True,FM,2.999999599999999,225
mp-975013,Rb3Dy,0.644651911458334,0.644651911458334,0.0,True,FM,0.2569921,225
mp-1110732,Rb3DyCl6,-2.4483570634166663,0.055163573249995004,4.6897,False,NM,0.0,225
mp-1206146,Rb3DyF6,-3.534895507416666,0.0,5.906000000000001,False,NM,0.0,225
mp-1186838,Rb3Er,0.633026511875,0.633026511875,0.0,False,NM,0.1179364,225
mp-1110694,Rb3ErCl6,-2.452722212249999,0.053630624499997004,4.6977,False,NM,0.0004769,225
mp-1206448,Rb3ErF6,-3.551303009249999,0.0,5.9394,False,NM,0.0,225
mp-1114107,Rb3EuCl6,-2.24888401675,0.065754684000001,0.0,True,FM,6.0164608,225
mp-1205796,Rb3EuF6,-3.25554123175,0.05641433925000101,3.952899999999999,True,FM,5.9998061,225
mp-1113833,Rb3FeF6,-2.9028153082499992,0.0,4.0898,True,FM,5.0000004,225
mp-1110731,Rb3GaBr6,-1.6467867740000002,0.111442365999999,2.1564,False,NM,0.0011794,225
mp-1113996,Rb3GaCl6,-1.9573714350000002,0.08635517250000001,3.5038,False,NM,0.0003716,225
mp-1113627,Rb3GaF6,-3.035707203999998,0.0,5.6871,False,NM,0.0,225
mp-1114160,Rb3GaI6,-1.206887245,0.12427451475000101,0.9515,False,NM,0.0024438,225
mp-1114105,Rb3GdCl6,-2.44069221425,0.045709065000002005,3.2771,True,FM,7.0000446,225
mp-1205532,Rb3GdF6,-3.48973538425,0.014208954833332002,4.569599999999999,True,FM,6.9999998,225
mp-2775197,Rb3Hf,1.167869001875,1.167869001875,0.0,True,FM,2.9212954,225
mp-974990,Rb3Hg,-0.038323631250001,0.068623684023437,0.0,False,NM,0.0056047,225
mp-974962,Rb3Ho,0.6445837831250011,0.6445837831250011,0.0,True,FM,0.4333103,225
mp-1205794,Rb3HoCl6,-2.449667439749999,0.054520842499996,4.6924,False,NM,0.0005934,225
mp-1186848,Rb3In,0.10787239270833401,0.16514090392045402,0.0,False,NM,0.5077427,225
mp-1114106,Rb3InBr6,-1.685310899916666,0.05768208550000001,2.5162,False,NM,0.004210699999999,225
mp-1110693,Rb3InCl6,-1.9781082609166671,0.0,3.6985,False,NM,0.0,225
mp-1113830,Rb3InF6,-2.954672109916665,0.0,5.1243,False,NM,0.0,225
mp-1114153,Rb3InI6,-1.258683346916666,0.105016175666663,1.419,False,NM,0.0175332,225
mp-974949,Rb3Ir,0.7905514543750001,0.7905514543750001,0.1087,False,NM,0.0003028,225
mp-21327,Rb3Ir(NO2)6,0.686943465340908,1.8745619882954498,0.0,True,FiM,5.9952718,225
mp-1113831,Rb3IrF6,-2.50563496325,0.030040920249999003,2.5271,False,NM,0.0008491999999990001,225
mp-1206660,Rb3LaBr6,-2.14113905375,0.0816455695,3.8366,False,NM,0.0007086999999990001,225
mp-1114627,Rb3LaCl6,-2.45459618775,0.080119400250001,4.5141,False,NM,0.001439599999999,225
mp-974950,Rb3Li,0.14351873104166601,0.14351873104166601,0.0,False,NM,0.0076043,225
mp-1113997,Rb3LuCl6,-2.454214791916667,0.050968605999997,4.7264,False,NM,0.0031119,225
mp-1206967,Rb3LuF6,-3.576023184916667,0.0,5.977399999999999,False,NM,0.0,225
mp-1186852,Rb3Mg,0.184755155625,0.184755155625,0.0,False,NM,0.013866799999999001,225
mp-1186859,Rb3Mn,0.6831109898922411,0.6831109898922411,0.0,True,FM,4.3073999,225
mp-1113828,Rb3MnF6,-2.896340527043103,0.056035324000004,0.0,True,FM,3.9998423,225
mp-974933,Rb3Mo,1.2047173593749991,1.2047173593749991,0.0,True,FM,5.1053076,225
mp-1113829,Rb3MoF6,-2.927005886249998,0.0,3.3404,True,FM,3.0000001,225
mp-974883,Rb3Na,0.047302559030172005,0.047302559030172005,0.0,False,NM,2.7e-06,225
mp-1113826,Rb3NbF6,-2.95474255725,0.091166631749999,0.0,True,FM,2.0031924,225
mp-974850,Rb3Nd,0.6125541225000001,0.6125541225000001,0.0,True,FM,2.4981497,225
mp-1110730,Rb3NdCl6,-2.422244261,0.06953182150000001,4.5085,False,NM,0.001095799999999,225
mp-1206106,Rb3NdF6,-3.461755927,0.060656393,5.576700000000001,False,NM,0.001360399999999,225
mp-1113628,Rb3NiF6,-2.56609698425,0.0327932245,0.0,True,FM,0.9999076,225
mp-974843,Rb3Os,1.408671126875,1.408671126875,0.0,True,FM,1.2719576,225
mp-974822,Rb3P,-0.061125994285713005,0.11857260520833302,0.42150000000000004,False,NM,0.0004915,225
mp-974832,Rb3Pb,0.007015786875000001,0.11558680015625102,0.0,True,FM,1.0032505,225
mp-1113827,Rb3PdF6,-2.446851288249999,0.045588053749997005,0.0,True,FM,0.999640499999999,225
mp-983446,Rb3Pm,0.6237568574999991,0.6237568574999991,0.0,True,FM,2.2279692,225
mp-974828,Rb3Pr,0.611536761458333,0.611536761458333,0.0,False,NM,0.0388876,225
mp-1114630,Rb3PrCl6,-2.4148858664166672,0.077458962500002,4.5158000000000005,False,NM,0.0038253999999990004,225
mp-1205725,Rb3PrF6,-3.444810941416666,0.072520003999997,5.5085,False,NM,0.0014207999999990002,225
mp-1186857,Rb3Re,1.5582243162499991,1.5582243162499991,0.0,True,FM,3.9128003,225
mp-1186865,Rb3Rh,0.646041806875,0.646041806875,0.0,False,NM,0.000284199999999,225
mp-1113824,Rb3RhF6,-2.5948713592499972,0.0,2.182899999999999,False,NM,0.0,225
mp-974810,Rb3Ru,1.112438989375,1.112438989375,0.0,True,FM,1.6687801,225
mp-1113825,Rb3RuF6,-2.578471849249998,0.0,0.0,True,FM,1.0,225
mp-33018,Rb3Sb,-0.38217980562499904,0.013495073750000001,0.431299999999999,False,NM,0.0,225
mp-1110729,Rb3SbBr6,-1.597547903249999,0.06702176074999901,2.841999999999999,False,NM,0.010123199999999001,225
mp-1110728,Rb3SbCl6,-1.866391993249999,0.012237117000001001,3.3798,False,NM,0.0,225
mp-1113923,Rb3SbF6,-2.835641546249999,0.022537303750004,3.7868,False,NM,0.0,225
mp-1110766,Rb3SbI6,-1.20327103325,0.0854623875,2.3797,False,NM,0.0019416,225
mp-1110727,Rb3ScBr6,-2.05498347875,0.04412938849999801,3.2222,False,NM,0.0018196999999990002,225
mp-1110692,Rb3ScCl6,-2.390593515749992,0.0,4.080999999999999,False,NM,0.0,225
mp-1113822,Rb3ScF6,-3.520107446749999,0.025049823999999003,6.0743,False,NM,0.0,225
mp-1114154,Rb3ScI6,-1.5780944137500001,0.028794196499998002,2.3922,False,NM,0.0017438999999990002,225
mp-974816,Rb3Sm,0.6304874531249991,0.6304874531249991,0.0,True,FM,2.0348196,225
mp-1110726,Rb3SmCl6,-2.432512823749999,0.057012936000004004,4.5482,False,NM,0.0089514,225
mp-1205612,Rb3SmF6,-3.48842949875,0.032585292666666,5.6869,False,NM,0.0020425,225
mp-974789,Rb3Sn,0.012934338125000002,0.1522592703125,0.0,True,FM,1.000372,225
mp-1186873,Rb3Sr,0.135942339374999,0.135942339374999,0.0,False,NM,0.006849399999999,225
mp-1186869,Rb3Ta,1.459702657541667,1.459702657541667,0.0,True,FM,5.4228818,225
mp-1113823,Rb3TaF6,-2.8966706069833332,0.239570914506667,0.0,True,FM,1.8974316,225
mp-1186872,Rb3Tb,0.6430969802083331,0.6430969802083331,0.0,True,FM,0.354640499999999,225
mp-1110725,Rb3TbCl6,-2.446857708916666,0.05619346499999701,4.6827000000000005,False,NM,5.9e-06,225
mp-974820,Rb3Tc,1.248042240624999,1.248042240624999,0.0,True,FM,3.7225012,225
mp-974760,Rb3Th,1.004179524375001,1.004179524375001,0.0,True,FM,4.0660493,225
mp-1113820,Rb3TiF6,-3.262406702583329,0.0,0.0,True,FM,1.0,225
mp-974739,Rb3Tl,0.06716093354166401,0.11920001585227201,0.0,False,NM,0.5137009,225
mp-1114103,Rb3TlBr6,-1.535106744583334,0.0,1.5276,False,NM,0.0,225
mp-1113993,Rb3TlCl6,-1.794059019583334,0.062662806999998,2.5212,False,NM,0.0009733,225
mp-1113916,Rb3TlF6,-2.664944161583335,0.0,3.7795,False,NM,0.0,225
mp-1114151,Rb3TlI6,-1.144932554583334,0.1362816815,0.617599999999999,False,NM,0.0014902,225
mp-974748,Rb3Tm,0.628147774374998,0.628147774374998,0.0,False,NM,0.1188933,225
mp-1110691,Rb3TmCl6,-2.45387886025,0.052862433249997,4.7238,False,NM,0.000308799999999,225
mp-1205998,Rb3TmF6,-3.56506299125,0.0,5.9785,False,NM,0.0,225
mp-974743,Rb3V,0.925049321875,0.925049321875,0.0,True,FM,4.8605284,225
mp-1113821,Rb3VF6,-3.04110724524999,0.0,0.0,True,FM,2.0000003,225
mp-1186876,Rb3W,1.544126681875,1.544126681875,0.0,True,FM,5.1780942,225
mp-974732,Rb3Y,0.642306796875,0.642306796875,0.0,True,FM,1.6290095,225
mp-1114104,Rb3YBr6,-2.11502790725,0.024273042999999002,3.8703000000000003,False,NM,0.002835599999999,225
mp-1110724,Rb3YCl6,-2.44290566325,0.057043338749996,4.6891,False,NM,0.0008546,225
mp-1113917,Rb3YF6,-3.51837411625,0.0,5.8525,False,NM,0.0,225
mp-1114152,Rb3YI6,-1.64265376825,0.059242819000001,3.2701000000000002,False,NM,0.0023964,225
mp-1205752,Rb3YbF6,-3.541985616874998,0.0,5.9958,False,NM,0.0,225
mp-1186882,Rb3Zr,1.022007679375,1.022007679375,0.0,True,FM,3.779906399999999,225
mp-1209464,Rb8Zr6BBr20,-1.887629681119048,0.0,0.08999999999999901,False,NM,0.941374199999999,225
mp-1209491,Rb8Zr6BeBr20,-1.8417212247142851,0.0,0.9719000000000001,False,NM,0.002269799999999,225
mp-1209503,Rb8Zr6MnBr20,-1.818426720798029,0.0,0.15990000000000001,True,FM,1.0009119,225
mp-862797,RbAcTe2,-1.455777653333333,0.0,0.9157000000000001,False,NM,0.0,225
mp-1008813,RbAgO,-0.45591307805555503,0.5437953425000001,0.0,False,NM,1.5e-06,216
mp-1061023,RbB,2.172314421666667,2.172314421666667,0.0,False,NM,0.0498556,225
mp-1219553,RbBH4,-0.505986865277777,0.0,6.0935,False,NM,0.0925959,216
mp-975397,RbBa3,0.134585248125,0.134585248125,0.0,False,NM,0.701846,225
mp-1209295,RbBi3F10,-2.845314605535717,0.0,4.3868,False,NM,0.0,225
mp-22867,RbBr,-2.02858637625,0.0,4.192,False,NM,1e-07,225
mp-975390,RbCa3,0.21772340812500002,0.21772340812500002,0.0,False,NM,0.0010646,225
mp-23295,RbCl,-2.24486944375,0.0,4.8388,False,NM,9.7e-05,225
mp-550759,RbClO4,-1.069178804583333,0.025213406666666,5.2141,False,NM,1e-07,216
mp-1008807,RbCuO,-0.190537467499999,0.9983613533333331,0.0,False,NM,9.140000000000001e-05,216
mp-1186946,RbEu3,0.277265706874995,0.277265706874995,0.0,True,FM,22.2933176,225
mp-504520,RbEu3F10,-3.721084515178573,0.0,0.0,True,FM,36.0078687,225
mp-11718,RbF,-2.87335177125,0.0,5.5244,False,NM,0.0,225
mp-1209289,RbGd3F10,-4.224621559464286,0.0,4.3883,True,FM,41.9999997,225
mp-1060680,RbGe,0.8525622687500001,1.04428038984375,0.0,True,FM,1.2357075,225
mp-24721,RbH,-0.235469759374999,0.0,2.9163,False,NM,0.0,225
mp-22903,RbI,-1.6958504512500001,0.0,3.7765,False,NM,0.0,225
mp-1110737,RbInBr3,-1.499045154833333,0.0251928205,1.3264,False,NM,0.0,225
mp-1114001,RbInCl3,-1.769028643833332,0.0,1.677299999999999,False,NM,0.0,225
mp-1110662,RbInF3,-2.730951067833332,0.00916132496031,2.4848,False,NM,0.0,225
mp-1147705,RbInH3,-0.046680246583332,0.0506047814375,0.0,False,NM,0.0002466,225
mp-1114161,RbInI3,-1.098630018833333,0.056383545166664,0.0,False,NM,0.0008571999999990001,225
mp-1209181,RbN,1.245347838749999,1.338817378333332,0.0,True,FM,2.0000351,225
mp-1110627,RbNa2AlF6,-3.189408286025862,0.21970376624999902,4.8591,False,NM,0.0,225
mp-1111406,RbNa2AsF6,-2.517516174775862,0.254437513125004,2.6812,False,NM,9.12e-05,225
mp-1186887,RbNa2Bi,-0.33428085756465703,0.008732930833331001,0.0,False,NM,6.59e-05,225
mp-1110626,RbNa2CoF6,-2.481677368025862,0.206744363250003,3.2454,False,NM,0.000102699999999,225
mp-1110625,RbNa2CrF6,-2.850811771025862,0.238410657749998,3.4631,True,FM,2.999952699999999,225
mp-1110624,RbNa2FeF6,-2.645681807025862,0.274310923249999,3.7187,True,FM,4.9996087,225
mp-1110623,RbNa2GaF6,-2.817508295775861,0.21409289733333503,4.693,False,NM,4.06e-05,225
mp-1110622,RbNa2NiF6,-2.353891747025862,0.24882353383332803,0.0,True,FM,1.0011825,225
mp-975275,RbNa2Sb,-0.42593365006465406,0.013858352083333001,0.5682,False,NM,0.0,225
mp-1179679,RbP,0.6283903789285721,0.987787577916666,0.0,True,FM,2.0000165,225
mp-1057437,RbS,-0.568788152499999,0.590676850833331,0.0,True,FM,0.999954999999999,225
mp-1002227,RbSb,0.22621498125000003,0.741350928124998,0.0,True,FM,1.9988713999999992,225
mp-1009650,RbSb,0.40322153125000004,0.918357478124998,0.0,True,FM,1.9999988,216
mp-1061530,RbSe,-0.6709966049218751,0.49323271583333206,0.0,True,FM,1.0000297,225
mp-1209116,RbSm3F10,-4.261201100178572,0.0,6.906499999999999,False,NM,0.0,225
mp-975219,RbSr3,0.142499315624999,0.142499315624999,0.0,False,NM,0.0154661,225
mp-1209091,RbTb3F10,-4.291934229464286,0.0,7.0894,False,NM,0.0,225
mp-1009489,RbTe,-0.603536877083332,0.44518740333333,0.0,True,FM,0.999969,225
mp-1009491,RbTe,-0.44834812708333205,0.600376153333331,0.0,True,FM,0.999999899999999,216
mp-867787,RbTl2Bi,-0.15864039854167,0.012079752239579002,0.0,False,NM,1e-07,225
mp-975198,RbTl3,-0.005344626875005001,0.073566670499999,0.0,False,NM,7.8e-06,225
mp-1114101,RbTlBr3,-1.391626091166668,0.025314895749999,0.9634,False,NM,0.0073325,225
mp-1113994,RbTlCl3,-1.630512951166668,0.030693201729167,1.1539,False,NM,0.000342099999999,225
mp-1113914,RbTlF3,-2.478353961166667,0.0,2.0588,False,NM,0.0,225
mp-1114149,RbTlI3,-1.024051937166668,0.09122113149999901,0.0,False,NM,0.0006416999999990001,225
mp-979935,RbYb3,0.7308290834374951,0.7308290834374951,0.0,False,NM,0.0029435,225
mp-8642,Re,0.068419187500005,0.068419187500005,0.0,False,NM,2.4e-05,225
mp-1209053,Re(Br3N)2,0.545180049722221,0.7862165894444451,0.0,True,FiM,4.9972668,225
mp-1207020,Re(NCl3)2,0.6709840058333351,1.148615148888888,0.0,True,FiM,4.9975532,225
mp-631573,Re2AuSe,0.869936454296869,1.0436236359375,0.0,False,NM,0.0021788,216
mp-631413,Re2PCl,0.953279820089283,1.533470383013888,0.0,False,NM,0.080065699999999,216
mp-631377,Re2PtRh,0.5032646783633651,0.70218715694444,0.0,False,NM,0.06323000000000001,225
mp-631592,Re2RuBr,1.037302777499998,1.318582491666666,0.0,False,NM,0.0075772,225
mp-974452,Re3C,1.360244891249991,1.400253267499998,0.0,False,NM,0.0001519,225
mp-974458,Re3F,0.35794396510416904,0.9927545927083301,0.0,False,NM,0.001072,225
mp-1186895,Re3H,0.777424362499999,0.777424362499999,0.0,False,NM,0.000979,225
mp-974415,Re3Pb,0.9921363037500011,0.9921363037500011,0.0,False,NM,0.0002125,225
mp-974417,Re3Sb,0.5845286912500001,0.5845286912500001,0.0,False,NM,0.0046016,225
mp-1209063,Re4As5S4,-0.48342408749999805,0.0009126011153860001,0.0,False,NM,1e-07,216
mp-1219547,Re4Pb4O13,-1.7364188045238111,0.06286947685161301,0.0,True,FM,5.3544015,216
mp-1186896,ReAg3,0.8957887237499981,0.8957887237499981,0.0,True,FM,2.0812116,225
mp-1186907,ReAs3,0.583457615833335,0.6544380979166671,0.0,False,NM,0.002375,225
mp-1009663,ReC,0.729423833125004,0.769432209375001,0.0,True,FM,0.769670899999999,216
mp-10709,ReC,0.9283115381250011,0.9683199143749981,0.0,False,NM,0.0441617,225
mp-505791,ReH8(Br3N)2,-0.7080407648529421,0.0,0.8133,True,FM,2.9991345,225
mp-632724,ReH8(NCl3)2,-0.889936553088236,0.0,1.0107,True,FM,2.999687299999999,225
mp-1002209,ReN,0.390726107291669,0.45004132166666705,0.0,False,NM,0.0013387,216
mp-1009694,ReN,0.946478597291672,1.00579381166667,0.0,False,NM,0.0002657,225
mp-1205510,ReNi(PbO3)2,-1.625657261249999,0.096234239609382,0.0,True,FM,2.9931961,225
mp-631354,ReOsRu,0.687556893444442,0.7790690602777771,0.0,False,NM,0.002955799999999,216
mp-974565,ReP3,0.41184229672618805,0.825768901458332,0.0,False,NM,0.0011611,225
mp-974611,RePb3,1.02683516375,1.02683516375,0.0,True,FM,0.9333094999999991,225
mp-631435,ReRuBr,1.155546917499999,1.514899743055553,0.0,False,NM,0.023990599999999,216
mp-631417,ReRuCl2,1.034860074374998,1.8187723386111112,0.0,False,NM,0.003124199999999,225
mp-631375,ReSn2Se,0.708344480234373,0.9351176343750001,0.0,False,NM,0.0289547,216
mp-974545,ReSn3,0.7425340274999991,0.7425340274999991,0.0,True,FM,0.864566899999999,225
mp-631754,ReSnGe,0.951728916428569,0.951728916428571,0.0,False,NM,0.001988799999999,216
mp-1079236,ReTc(PbO3)2,-1.590976127749999,0.15035919554687302,0.0,False,NM,0.00045809999999900006,225
mp-1078950,ReTc(SnO3)2,-1.49434409875,0.339492002,0.0,False,NM,0.0013797,225
mp-5222,ReTeS,-0.6838039330555581,0.0,0.075099999999999,False,NM,0.0,216
mp-631424,ReW2Br,1.138445420625,1.456778944791667,0.0,False,NM,1.3200000000000002e-05,216
mp-1404693,ReWO6,-2.1373404015625,0.025334403906249,0.0,False,NM,0.004631,225
mp-74,Rh,0.0,0.0,0.0,False,NM,5.799999999999999e-06,225
mp-1009652,RhC,1.101710296250001,1.101710296250001,0.0,True,FM,0.384544,225
mp-1009696,RhC,0.560659146249999,0.560659146249999,0.0,False,NM,0.0008667999999990001,216
mp-1009720,RhN,0.7808823774999991,0.7808823774999991,0.0,False,NM,0.0078388,225
mp-1009734,RhN,0.334703842500001,0.334703842500001,0.0,False,NM,1.4400000000000001e-05,216
mp-8639,Ru,0.13095969499999702,0.13095969499999702,0.0,False,NM,2.4e-06,225
mp-1079486,Ru(IN3)2,2.4633702533333333,2.681960367499999,0.0,False,NM,0.035702,225
mp-1079581,Ru(N3Cl)2,2.579832548888888,2.877646267777777,0.0,True,FiM,8.7764058,225
mp-1186909,Ru3F,0.26542872916666105,0.8713118633333321,0.0,False,NM,0.000315499999999,225
mp-674149,Ru4Pb4O13,-1.517015615476188,0.0,0.0,False,NM,0.0206128,216
mp-1009787,RuC,0.9096720512499981,0.9096720512499981,0.0,False,NM,0.0002097,225
mp-1009792,RuC,0.453844466249999,0.453844466249999,0.6642,False,NM,0.0008742,216
mp-1009769,RuN,0.743833227499997,0.743833227499997,0.0,True,FM,1.0346265,225
mp-1009770,RuN,0.079167312499997,0.079167312499997,0.0,False,NM,0.0003072,216
mp-1008785,RuO2,-1.269603159999999,0.188058738333334,0.6072000000000001,False,NM,0.0005869,225
mp-684673,S,1.301282766875,1.301282766875,0.0,False,NM,1.2e-06,225
mp-1070625,SO4,-1.1026007535,0.162053838666667,0.0,True,FM,1.999792499999999,216
mp-10630,Sb,0.328350750000002,0.328350750000002,0.0,False,NM,0.0,225
mp-1209055,Sb(Br3N)2,0.536319153333333,0.9846255325000001,0.0,True,FM,6.9984962,225
mp-973203,Sb3Mo,0.570996708333336,0.570996708333336,0.0,False,NM,0.004668999999999,225
mp-1206982,SbPb,0.039495680000001004,0.039495680000001004,0.0,False,NM,6e-07,225
mp-973402,SbPd3,-0.369998097499998,0.049276065357144,0.0,False,NM,0.0,225
mp-973353,SbPt3,-0.077053695624996,0.171485187499996,0.0,False,NM,0.010334399999999001,225
mp-1030,SbPt7,-0.11450513875000401,0.009764302812499001,0.0,False,NM,3e-07,225
mp-36,Sc,0.101017464999999,0.101017464999999,0.0,False,NM,3.85e-05,225
mp-1078490,Sc(NF2)3,-0.43083166400000006,1.437469530250004,0.0,True,FM,6.0000221,225
mp-12304,Sc11Ir4,-0.695271722666667,0.0,0.0,False,NM,2.5514247,225
mp-12305,Sc11Os4,-0.37075199766666805,0.0,0.0,False,NM,2e-07,225
mp-1194143,Sc11Ru4,-0.404493565333333,0.0,0.0,False,NM,0.0,225
mp-1193429,Sc2(Co7B2)3,-0.243715639482759,0.030883369999994,0.0,True,FiM,20.7036825,225