material_id,formula,formation_energy,ehull,band_gap,is_magnetic,magnetic_ordering,total_magnetization,spacegroup
mp-647205,Sc2(Ni7B2)3,-0.380513407413792,0.0,0.0,True,FM,1.1235958,225
mp-862703,Sc2AgAu,-0.584058553750001,0.007804138124999,0.0,False,NM,1.0800000000000002e-05,225
mp-862702,Sc2AgHg,-0.38885600062500103,0.0,0.0,False,NM,9e-07,225
mp-862432,Sc2AgIr,-0.667457705416666,0.009654504910713001,0.0,False,NM,1e-06,225
mp-862431,Sc2AgOs,-0.37469696291666704,0.0,0.0,False,NM,5.5e-06,225
mp-1186932,Sc2AgPt,-0.7794751104166641,0.006450313125000001,0.0,False,NM,2.08e-05,225
mp-862473,Sc2AgRu,-0.439213590416665,0.0,0.0,False,NM,8.4e-06,225
mp-972907,Sc2AlAg,-0.369152458749999,0.0,0.0,False,NM,9.9e-06,225
mp-972914,Sc2AlCd,-0.387223779999999,0.007978842500001,0.0,False,NM,0.0003502,225
mp-972884,Sc2AlCu,-0.347952827499996,0.021006542500000003,0.0,False,NM,3.94e-05,225
mp-972877,Sc2AlIr,-0.736778934999999,0.029382904668803004,0.0,False,NM,0.00014639999999900002,225
mp-862486,Sc2AlOs,-0.48039860499999903,0.0,0.0,False,NM,0.00014319999999900002,225
mp-862546,Sc2AlRu,-0.529610327499999,0.018248340357142002,0.0,False,NM,5.799999999999999e-06,225
mp-862543,Sc2AlTc,-0.37082255625000005,0.0,0.0,False,NM,3.7e-06,225
mp-862548,Sc2AlZn,-0.424913742499999,0.0,0.0,False,NM,0.0002304,225
mp-862553,Sc2BeRu,-0.33994942374999904,0.039438873928570005,0.0,False,NM,0.003131499999999,225
mp-862563,Sc2BeTc,-0.132397137499999,0.0406184023125,0.0,False,NM,4e-07,225
mp-972882,Sc2CdAg,-0.28327863624999905,0.010521727500002001,0.0,False,NM,3e-07,225
mp-1186938,Sc2CdAu,-0.5713901449999981,0.022595552999998002,0.0,False,NM,2.8700000000000003e-05,225
mp-1186933,Sc2CdGa,-0.47481379,0.026029921249998002,0.0,False,NM,0.0003738,225
mp-1186937,Sc2CdHg,-0.40330118937500303,0.0,0.0,False,NM,0.0003784,225
mp-862711,Sc2CdIn,-0.44210366999999806,0.0,0.0,True,FM,0.615992299999999,225
mp-1186935,Sc2CdOs,-0.321971174999999,0.0019274264236100003,0.0,False,NM,3.9e-06,225
mp-862710,Sc2CdTc,-0.203817143749999,0.046371815312499,0.0,False,NM,2.7200000000000004e-05,225
mp-1186940,Sc2CoCu,-0.25179524000000103,0.022116357499998,0.0,True,FiM,0.1901954,225
mp-862712,Sc2CoIr,-0.7195633299999991,0.0,0.0,True,FiM,0.376404099999999,225
mp-1186936,Sc2CoNi,-0.421443582499999,0.011186067499999001,0.0,True,FiM,1.0553031,225
mp-867110,Sc2CoOs,-0.36936619749999905,0.0,0.0,False,NM,9.400000000000001e-05,225
mp-1186939,Sc2CoPt,-0.793826804999998,0.005489926250000001,0.0,True,FM,1.0297741,225
mp-1186944,Sc2CoRh,-0.672317409999998,0.022329242499999003,0.0,False,NM,0.0015761,225
mp-867761,Sc2CoRu,-0.471301969999999,0.0,0.0,False,NM,0.0020365,225
mp-1205485,Sc2CrReO6,-2.18807847825,0.814832585249999,0.0,True,FiM,1.454769,225
mp-867756,Sc2CuAu,-0.543753020000001,0.0006946874999980001,0.0,False,NM,0.0,225
mp-867794,Sc2CuIr,-0.7032989375,0.0,0.0,False,NM,0.0,225
mp-1186945,Sc2CuNi,-0.3903659975,0.0036201899999990005,0.0,False,NM,2.6e-06,225
mp-867802,Sc2CuOs,-0.40887275999999806,0.0,0.0,False,NM,0.0001329,225
mp-1186941,Sc2CuPd,-0.5839053525000001,0.0,0.0,False,NM,2.1800000000000005e-05,225
mp-867117,Sc2CuPt,-0.7990680525,0.0,0.0,False,NM,0.0,225
mp-1186958,Sc2CuRh,-0.638488027499999,0.017515162499999,0.0,False,NM,9.220000000000003e-05,225
mp-862338,Sc2CuRu,-0.47142781999999805,0.0,0.0,False,NM,2e-07,225
mp-862376,Sc2CuTc,-0.25305230875,0.0017331678125,0.0,False,NM,2.499999999999999e-06,225
mp-862339,Sc2GaAg,-0.49452463625000004,0.012685692499999,0.0,False,NM,4e-06,225
mp-972898,Sc2GaAu,-0.743668615,0.023590276249997003,0.0,False,NM,5.2400000000000007e-05,225
mp-862340,Sc2GaCu,-0.49156072250000005,0.0,0.0,False,NM,1.3300000000000001e-05,225
mp-972899,Sc2GaIr,-0.8053350518749991,0.025148502500000003,0.0,False,NM,0.0012974,225
mp-1186942,Sc2GaNi,-0.5382615968749991,0.021547459375001,0.0,False,NM,8.1e-05,225
mp-862300,Sc2GaOs,-0.529882809374998,0.0,0.0,False,NM,1.0500000000000001e-05,225
mp-1186943,Sc2GaPd,-0.77324752,0.019793296249998,0.0,False,NM,3.91e-05,225
mp-972869,Sc2GaPt,-0.9098154593749991,0.005126592500000001,0.0,False,NM,6.9e-06,225
mp-862311,Sc2GaRu,-0.6024781018749981,0.0,0.0,False,NM,6.799999999999997e-06,225
mp-862324,Sc2GaTc,-0.43681105062499903,0.035821830000000006,0.0,False,NM,3.9e-06,225
mp-862337,Sc2InAg,-0.42727418124999805,0.0,0.0,False,NM,2.3300000000000004e-05,225
mp-1186950,Sc2InHg,-0.49170854437500106,0.024600214999999002,0.0,True,FM,0.5770017,225
mp-1186954,Sc2IrOs,-0.713824494999999,0.003505956423611,0.0,False,NM,1.5100000000000001e-05,225
mp-862336,Sc2IrPd,-1.000160442499997,0.0,0.0,False,NM,1.23e-05,225
mp-862334,Sc2IrRh,-1.042154367499999,0.002684155,0.0,False,NM,5e-07,225
mp-862369,Sc2IrRu,-0.8440975324999981,0.0,0.0,False,NM,8e-06,225
mp-999256,Sc2MnC,0.735987046691811,1.169525391875,0.0,True,FiM,1.0006921,216
mp-999257,Sc2MnC,0.440856774191811,0.874395119375,0.0,True,FM,0.5851196,225
mp-999249,Sc2MnGe,-0.186364483232758,0.411654480172416,0.0,True,FiM,1.0010671,216
mp-999258,Sc2MnGe,-0.312315403232759,0.28570356017241505,0.0,True,FiM,2.5960569,225
mp-999201,Sc2MnSi,-0.18256188698275802,0.352196536250002,0.0,True,FiM,1.0008547,216
mp-999208,Sc2MnSi,-0.26924373948275804,0.26551468375000203,0.0,True,FM,0.375598,225
mp-1018017,Sc2MnSn,-0.310790319324713,0.229316521005749,0.0,True,FiM,2.6752959,225
mp-999207,Sc2MnSn,-0.22699402432471402,0.31311281600574803,0.0,True,FiM,1.0002808,216
mp-862360,Sc2NiIr,-0.8072102925000001,0.0,0.0,False,NM,1e-07,225
mp-862361,Sc2NiOs,-0.497469572499998,0.0,0.0,False,NM,0.000636,225
mp-1186955,Sc2NiPd,-0.6883054,0.019168527499999,0.0,False,NM,7e-07,225
mp-862368,Sc2NiPt,-0.8843554249999991,0.0,0.0,False,NM,7.599999999999997e-06,225
mp-972961,Sc2NiRh,-0.748820552499999,0.020373547499999003,0.0,False,NM,0.0081476,225
mp-862367,Sc2NiRu,-0.579911954999999,0.0,0.0,False,NM,1.45e-05,225
mp-972966,Sc2OsAu,-0.5890004374999971,0.003147111423611,0.0,False,NM,3.399999999999998e-06,225
mp-862365,Sc2OsPd,-0.6930195999999981,0.0,0.0,False,NM,0.0,225
mp-862364,Sc2OsPt,-0.837381349999997,0.0,0.0,False,NM,0.00019879999999900002,225
mp-1186957,Sc2OsRh,-0.700234014999996,0.003469016423611,0.0,False,NM,0.0001634,225
mp-972866,Sc2PdAu,-0.8739244649999981,0.008915302500000001,0.0,False,NM,1.62e-05,225
mp-862363,Sc2PdPt,-1.089358882500001,0.0,0.0,False,NM,6.7e-06,225
mp-1186951,Sc2PdRh,-0.9530694350000001,0.016421494999998003,0.0,False,NM,4e-07,225
mp-862370,Sc2PdRu,-0.7844749699999971,0.0,0.0,False,NM,2e-07,225
mp-1186956,Sc2PtRh,-1.114810417499996,0.014486602500002001,0.0,False,NM,2.6300000000000002e-05,225
mp-972879,Sc2RuAu,-0.6800551299999991,0.0,0.0,False,NM,0.0,225
mp-862371,Sc2RuPt,-0.9565562949999981,0.0,0.0,False,NM,0.0001314,225
mp-862372,Sc2RuRh,-0.8194979575000001,0.0,0.0,False,NM,2.4700000000000004e-05,225
mp-862379,Sc2TcAg,-0.24092823166666402,0.014370795312501001,0.0,False,NM,4.2e-06,225
mp-862378,Sc2TcAu,-0.5072878362499981,0.053100112812501,0.0,False,NM,0.0,225
mp-862375,Sc2TcHg,-0.268722304375002,0.061269083437499004,0.0,False,NM,1e-07,225
mp-862424,Sc2TcNi,-0.32854611374999904,0.04631845281250101,0.0,False,NM,9e-07,225
mp-862423,Sc2TcPd,-0.549106398749999,0.040141765937501,0.0,False,NM,6.170000000000001e-05,225
mp-862362,Sc2TcPt,-0.749040881249998,0.038417217812501,0.0,False,NM,2.1600000000000003e-05,225
mp-862366,Sc2TlAg,-0.33774410874999805,0.0,0.0,False,NM,0.0,225
mp-861918,Sc2TlCd,-0.344184799999997,0.0,0.0,True,FM,0.917060299999999,225
mp-1186961,Sc2TlHg,-0.412965231874999,0.0,0.0,True,FM,0.9360001,225
mp-972861,Sc2TlTc,-0.18330031208333603,0.034164898020832,0.0,False,NM,5.5e-06,225
mp-1186959,Sc2TlZn,-0.305507225833333,0.0,0.0,False,NM,0.0120269,225
mp-1186953,Sc2ZnAg,-0.319205352916665,0.012488584999999,0.0,False,NM,1.38e-05,225
mp-862257,Sc2ZnAu,-0.599019242499999,0.0,0.0,False,NM,1.5100000000000001e-05,225
mp-978523,Sc2ZnCu,-0.31778599500000004,0.013394392499999,0.0,False,NM,4.0700000000000014e-05,225
mp-867242,Sc2ZnGa,-0.520936634375,0.0,0.0,False,NM,1.3400000000000002e-05,225
mp-1186952,Sc2ZnHg,-0.388919045625002,0.015134207499999,0.0,False,NM,3.799999999999998e-06,225
mp-1186966,Sc2ZnIn,-0.396070646666665,0.009273122499999,0.0,False,NM,0.001042999999999,225
mp-867233,Sc2ZnIr,-0.7309582049999991,0.0,0.0,False,NM,1.3400000000000002e-05,225
mp-867243,Sc2ZnOs,-0.440798949999998,0.0,0.0,False,NM,2e-07,225
mp-1186962,Sc2ZnPd,-0.6345709899999981,0.0100971375,0.0,False,NM,1.3600000000000002e-05,225
mp-862258,Sc2ZnPt,-0.835461669999999,0.0,0.0,False,NM,8.8e-06,225
mp-862261,Sc2ZnRu,-0.49405276999999903,0.0,0.0,False,NM,2.4e-06,225
mp-862264,Sc2ZnTc,-0.30458715874999903,0.0005834278125000001,0.0,False,NM,2.61e-05,225
mp-1194311,Sc3(Ni10B3)2,-0.43820955482758406,0.0,0.0,False,NM,0.140642,225
mp-1200708,Sc44Ir7,-0.37239675401960703,0.0,0.0,False,NM,1.5346594,216
mp-568623,Sc44Os7,-0.19762867794117603,0.0,0.0,False,NM,1.8295649999999992,216
mp-1209947,Sc44Ru7,-0.211793357647058,0.0,0.0,False,NM,0.870099499999999,216
mp-978662,Sc6Al16Ir7,-0.8709456475862061,0.0,0.0,False,NM,0.9790087999999991,225
mp-1194264,Sc6Al16Ni7,-0.6070693855172411,0.014458375517238001,0.0,False,NM,0.6096408,225
mp-1194206,Sc6Al16Os7,-0.606137375517242,0.0,0.0,False,NM,1.4e-06,225
mp-1194261,Sc6Al16Pd7,-0.7680927989655161,0.0,0.0,False,NM,0.0288677,225
mp-1194154,Sc6Al16Rh7,-0.8293289617241371,0.0,0.0,False,NM,7.47e-05,225
mp-1192947,Sc6Al16Ru7,-0.671189298965517,0.004263442413792001,0.0,False,NM,0.033213,225
mp-1192939,Sc6Co16Si7,-0.6129209668965511,0.0,0.0,True,FM,5.621079,225
mp-1193281,Sc6Ga16Ir7,-0.642436120689655,0.0,0.0,False,NM,2.7900000000000004e-05,225
mp-1193385,Sc6Ga16Os7,-0.38974292551724005,0.024875790389805003,0.0,False,NM,0.0005007,225
mp-1193571,Sc6Ga16Rh7,-0.679642142068965,0.0057566645817370005,0.0,False,NM,8.820000000000004e-05,225
mp-979260,Sc6Ga16Ru7,-0.5184529931034451,0.0,0.0,False,NM,1.58e-05,225
mp-570547,Sc6Ni16Ge7,-0.605835830172413,0.0,0.0,False,NM,0.0018759,225
mp-5382,Sc6Si7Ni16,-0.744869199999999,0.0,0.0,False,NM,2.0600000000000003e-05,225
mp-1186973,ScAg3,-0.156942072499997,0.068511942500002,0.0,False,NM,3.5e-06,225
mp-31169,ScAlAg2,-0.328348003749999,0.0,0.0,False,NM,3.5e-06,225
mp-10873,ScAlAu2,-0.705044028749999,0.00024481652777800004,0.0,False,NM,2.2000000000000003e-05,225
mp-862602,ScAlCo2,-0.42680000125000106,0.0,0.0,False,NM,1e-06,225
mp-16497,ScAlCu2,-0.429006133749999,0.0,0.0,False,NM,4.1e-06,225
mp-861507,ScAlIr2,-1.009155341249998,0.0,0.0,False,NM,1e-07,225
mp-10898,ScAlNi2,-0.627430021249998,0.0,0.0,False,NM,8.570000000000001e-05,225
mp-16524,ScAlPd2,-0.960797691249999,0.0,0.0,False,NM,1.5e-06,225
mp-973153,ScAlPt2,-1.114944566250001,0.019959054374998002,0.0,False,NM,2.7e-06,225
mp-867922,ScAlRh2,-1.089973603749999,0.0,0.0,False,NM,1.2800000000000001e-05,225
mp-2052,ScAs,-1.585676658749999,0.0,0.0,False,NM,2e-07,225
mp-1186977,ScAu3,-0.6232297012499971,0.07420115249999501,0.0,False,NM,3e-07,225
mp-8772,ScB12,-0.21951619653846202,0.0,0.0,False,NM,0.0,225
mp-570632,ScBi,-0.809993955000003,0.0,0.0,False,NM,4e-07,225
mp-1206681,ScBiPd,-0.8959378066666651,0.0,0.0,False,NM,0.0,216
mp-973126,ScBiPd2,-0.7100050987499921,0.07514109625000001,0.0,False,NM,0.0001538,225
mp-10020,ScC,-0.27478291085714,0.308114915357144,0.0,False,NM,3.41e-05,225
mp-1009751,ScC,0.338737844142858,0.9216356703571441,0.0,True,FM,1.0002438,216
mp-867127,ScCdAg2,-0.235171138749997,0.0,0.0,False,NM,3.52e-05,225
mp-973170,ScCdAu2,-0.641679473749995,0.018009839999997,0.0,False,NM,1.2800000000000001e-05,225
mp-973141,ScCdCu2,-0.193069221249999,0.0033742649999970002,0.0,False,NM,0.00021679999999900002,225
mp-867263,ScCdHg2,-0.29473139000000204,0.0,0.0,False,NM,9e-07,225
mp-1077397,ScCdNi4,-0.35809540249999805,0.0,0.0,True,FM,0.6788362,216
mp-867911,ScCdPd2,-0.7143696312499981,0.0,0.0,False,NM,3e-06,225
mp-1186978,ScCdPt2,-0.807852176249999,0.018976793749999003,0.0,False,NM,9.199999999999997e-06,225
mp-867909,ScCdRh2,-0.6000478612499981,0.0,0.0,False,NM,1.5600000000000003e-05,225
mp-1208943,ScCo2Ge,-0.45871119000000005,0.08188050875000001,0.0,True,FM,1.0059043,225
mp-3791,ScCo2Sn,-0.397145514999999,0.0,0.0,True,FiM,1.1536143,225
mp-1219300,ScCoNiSn,-0.44176766499999903,0.036147650000001,0.0,True,FM,1.1949551,216
mp-961678,ScCoTe,-0.9258110738888891,0.008902987777777,0.867799999999999,False,NM,0.0,216
mp-973100,ScCu3,-0.12813920374999901,0.049172665000000004,0.0,False,NM,0.0,225
mp-1072944,ScCu4Sn,-0.22685873583332902,0.06521863999999901,0.0,False,NM,0.0002669,216
mp-973133,ScCuPd2,-0.630324856249998,0.033183781749999,0.0,False,NM,4e-07,225
mp-973067,ScGa2Ru,-0.5247991625,0.004263329264704001,0.0,False,NM,9.6e-06,225
mp-867915,ScGaCo2,-0.349506956250001,0.021061685892858003,0.0,False,NM,3e-07,225
mp-11360,ScGaCu2,-0.39477505375000105,0.0,0.0,False,NM,2.7e-06,225
mp-867916,ScGaIr2,-0.8041942656249991,0.0,0.0,False,NM,6e-06,225
mp-11400,ScGaNi2,-0.5701341281249991,0.0,0.0,False,NM,0.0001595,225
mp-30661,ScGaPd2,-0.8764897312500001,0.0,0.0,False,NM,2.7e-06,225
mp-867923,ScGaPt2,-0.9555248081249991,0.021843295624996,0.0,False,NM,3.2e-06,225
mp-867928,ScGaRh2,-0.9734605056249991,0.0,0.0,False,NM,0.0,225
mp-867156,ScGaRu2,-0.440619790625,0.0,0.0,False,NM,6.9e-06,225
mp-1009753,ScGe,0.193944565,1.0795481875,0.0,True,FM,1.0001791,216
mp-961697,ScGeAu,-0.7613223916666431,0.02934935666666,0.27390000000000003,False,NM,0.0003594,216
mp-973066,ScGeRh2,-0.8401895274999981,0.008541167708333,0.0,True,FM,0.7820332,225
mp-24237,ScH2,-0.7380941941666671,0.0,0.0,False,NM,0.0004258,225
mp-973053,ScH3,-0.47850678281249903,0.07506386281249901,0.0,False,NM,0.0,225
mp-631325,ScHgW2,0.9422049693750051,1.183118167500005,0.0,True,FM,0.5300408,225
mp-30347,ScInAg2,-0.334686023749998,0.0,0.0,False,NM,2.0700000000000002e-05,225
mp-30395,ScInAu2,-0.687778471249998,0.009886136500007001,0.0,False,NM,4.1700000000000004e-05,225
mp-21067,ScInCu2,-0.34855347624999805,0.010323330000009,0.0,False,NM,3.71e-05,225
mp-13240,ScInCu4,-0.2949053675,0.0,0.0,False,NM,1.5e-06,216
mp-867187,ScInIr2,-0.632838100416666,0.0,0.0,False,NM,3.299999999999999e-06,225
mp-21301,ScInNi2,-0.442703425416665,0.0,0.0,False,NM,7.49e-05,225
mp-1207011,ScInNi4,-0.40745161361111104,0.0,0.0,False,NM,3.0000000000000004e-05,216
mp-31339,ScInPd2,-0.8743460287500001,0.0,0.0,False,NM,2.6e-06,225
mp-20521,ScInPt2,-0.909457302916667,0.0,0.0,False,NM,4e-06,225
mp-867842,ScInRh2,-0.8301913204166641,0.0,0.0,False,NM,1.58e-05,225
mp-867850,ScMnRh2,-0.6200353282327581,0.0,0.0,True,FM,4.4052418,225
mp-1009750,ScN,-1.789021039999999,0.303332525,2.4152,False,NM,0.0003049,216
mp-2857,ScN,-2.092353565,0.0,0.0,False,NM,0.0,225
mp-1219284,ScNb(PbO3)2,-2.643987510499999,0.044170801781247,2.574899999999999,False,NM,4.7e-06,225
mp-867786,ScNbOs2,-0.43190512624999405,0.0,0.0,False,NM,4.299999999999999e-06,225
mp-867146,ScNbRu2,-0.5343486862499981,0.0,0.0,False,NM,0.0,225
mp-867795,ScNbTc2,-0.25523869875,0.0,0.0,False,NM,1e-07,225
mp-4536,ScNi2Sn,-0.551673157499999,0.0,0.0,False,NM,3.9900000000000014e-05,225
mp-1072255,ScNi4Au,-0.40065256583333003,0.0,0.0,True,FM,1.3133659,216
mp-11808,ScNi4Sn,-0.41218768333333305,0.0,0.0,False,NM,1.7500000000000002e-05,216
mp-30459,ScNiBi,-0.626136915000001,0.0,0.1869,False,NM,0.0,216
mp-961675,ScNiP,-1.033952266547617,0.168802929166665,0.5921000000000001,False,NM,0.0011057,216
mp-3432,ScNiSb,-0.9635939116666631,0.0,0.2679,False,NM,0.0,216
mp-644481,ScO,-3.240489735,0.066787465624997,0.0,False,NM,0.0,225
mp-1009746,ScP,-1.135016751488095,0.531236784999999,1.619299999999999,False,NM,0.0005432,216
mp-2807,ScP,-1.6662535364880942,0.0,0.0,False,NM,1e-07,225
mp-867151,ScPaOs2,-0.33476882624999804,0.0,0.0,False,NM,4.83e-05,225
mp-867804,ScPaRu2,-0.522963988749998,0.0,0.0,False,NM,0.0002698,225
mp-862612,ScPaTc2,-0.33587169375000003,0.0,0.0,False,NM,2.1700000000000002e-05,225
mp-1206369,ScPd2Pb,-0.680350783749997,0.0,0.0,False,NM,2.6600000000000003e-05,225
mp-862609,ScReTc2,-0.20217244687500302,0.045900530963535004,0.0,False,NM,9.800000000000001e-06,225
mp-862629,ScRh2Pb,-0.5848243712499991,0.0,0.0,True,FM,0.820274,225
mp-1476,ScS,-2.07528723390625,0.0,0.0,False,NM,5e-07,225
mp-549,ScSb,-1.103990267499998,0.0,0.0,False,NM,0.0,225
mp-569779,ScSbPd,-1.1327451249999991,0.0,0.015500000000000002,False,NM,0.0,216
mp-7173,ScSbPt,-1.1701720016666641,0.0,0.644099999999999,False,NM,0.0,216
mp-862635,ScSbRh2,-0.7848349362500001,0.026812590624998002,0.0,False,NM,0.0094532,225
mp-862561,ScSbRu2,-0.6069024562499991,0.0,0.0,False,NM,0.0,225
mp-1782,ScSe,-1.788663982031248,0.0,0.0,False,NM,5.2600000000000005e-05,225
mp-1009752,ScSi,0.47026460750000004,1.328661507500001,0.0,True,FM,1.0000327,216
mp-1100432,ScSiAg,0.075430832777776,0.6476954327777781,0.0,False,NM,0.0003079,216
mp-862556,ScSiPd2,-0.8674162964285691,0.07523939374999901,0.0,False,NM,0.0009056,225
mp-972970,ScSiRh2,-0.929153363749999,0.024059236666665002,0.0,False,NM,0.176859,225
mp-1009747,ScSn,0.36609944339285505,1.036799461964285,0.0,True,FM,1.0001794,216
mp-2894,ScSnAu,-0.8532462150000031,0.0,0.12249999999999901,False,NM,0.0,216
mp-4897,ScSnPd2,-0.8790974137499991,0.0,0.0,False,NM,4e-07,225
mp-12603,ScSnPt,-0.414755379999999,0.587000330555557,0.0,False,NM,0.000932,216
mp-30844,ScSnPt2,-0.890593649999998,0.052317237777777005,0.0,False,NM,0.0006709999999990001,225
mp-862623,ScSnRh2,-0.8764835499999981,0.0,0.0,True,FM,0.6874678,225
mp-867748,ScSnRu2,-0.50737699,0.0,0.0,False,NM,2.5300000000000005e-05,225
mp-550579,ScTa(PbO3)2,-2.765637124233333,0.019111178093757,2.5824,False,NM,0.0001058,225
mp-973089,ScTaFe2,-0.19835061808333102,0.007106571916667001,0.0,False,NM,0.0001336,225
mp-862699,ScTaOs2,-0.529961978083333,0.0,0.0,False,NM,0.0,225
mp-867897,ScTaRu2,-0.6225111480833331,0.0,0.0,False,NM,7e-07,225
mp-867901,ScTaTc2,-0.323022823083331,0.037920050312502,0.0,False,NM,2e-07,225
mp-862723,ScTc2Mo,-0.17953745874999902,0.049238216875002,0.0,False,NM,0.0037679,225
mp-862725,ScTc2W,-0.230808796249998,0.0,0.0,False,NM,6.97e-05,225
mp-867262,ScTc3,-0.11340673750000001,0.11536893812500001,0.0,False,NM,1.5900000000000004e-05,225
mp-1100405,ScTeRh,-1.21827575388889,0.0,0.38460000000000005,False,NM,0.0,216
mp-972957,ScTiRu2,-0.656583467083333,0.0,0.0,False,NM,8e-07,225
mp-631406,ScTl2W,0.558372785694444,0.651517345277781,0.0,False,NM,0.0039616,225
mp-1205824,ScTl3F6,-2.805698890499997,0.0273205055,3.3232,False,NM,9.87e-05,225
mp-1100418,ScTlCd,0.07541821566666801,0.321571901333332,0.0,False,NM,0.001281099999999,216
mp-867881,ScTlRh2,-0.5796567395833351,0.0,0.0,False,NM,0.0,225
mp-867858,ScUTc2,-0.16451214125000002,0.064263534375001,0.0,True,FM,1.1990793,225
mp-631302,ScVFe,0.678175858333332,0.8455510033333341,0.0,True,AFM,0.0043615,216
mp-867137,ScVRu2,-0.45831425124999203,0.0,0.0,False,NM,6.099999999999997e-06,225
mp-867109,ScZn2Ag,-0.281867579166665,0.004820286666665,0.0,False,NM,4e-07,225
mp-972925,ScZn2Au,-0.46011325874999903,0.019625049791667,0.0,False,NM,0.0010706,225
mp-1187006,ScZn2Cu,-0.264902471249999,0.019352509375,0.0,False,NM,1.2e-06,225
mp-973142,ScZn2Pd,-0.5437562837499991,0.02733567953125,0.0,False,NM,0.0004282,225
mp-862704,ScZn2Pt,-0.668171681249999,0.050773856718752,0.0,False,NM,0.0001159,225
mp-973143,ScZn3,-0.29388966999999905,0.019244122499999003,0.0,False,NM,6.099999999999997e-06,225
mp-1186992,ScZnAu2,-0.6099848012500001,0.015960599687499,0.0,False,NM,5.9e-06,225
mp-867896,ScZnCu2,-0.255376168749999,0.0,0.0,False,NM,8.7e-06,225
mp-972935,ScZnNi2,-0.41997688374999903,0.006197066750000001,0.0,False,NM,0.00013979999999900002,225
mp-867135,ScZnPd2,-0.7885469112499941,0.0,0.0,False,NM,1.77e-05,225
mp-867768,ScZnPt2,-0.9210452037499941,0.0,0.0,False,NM,9.9e-06,225
mp-867769,ScZnRh2,-0.7752742837499991,0.0,0.0,False,NM,5e-07,225
mp-723017,Se(Br3N)2,0.817031646406249,1.189341821250001,0.0,True,FM,6.3568595,225
mp-1079970,Se(Br3O)2,0.78951381751736,1.235414783657407,0.0,False,NM,0.0235005,225
mp-1080652,Se(NCl3)2,1.039011862743051,1.233359366944446,0.0,True,FM,6.0761255,225
mp-2559,SeS,0.38492813066220305,0.38492813066220305,0.0,False,NM,6.49e-05,225
mp-27,Si,0.53156601,0.53156601,0.0,False,NM,0.0,225