material_id,formula,formation_energy,ehull,band_gap,is_magnetic,magnetic_ordering,total_magnetization,spacegroup
mp-1186452,Pm2CuAu,-0.46577829624999906,0.0,0.0,False,NM,1.4200000000000001e-05,225
mp-863664,Pm2CuGe,-0.510325878750002,0.0,0.0,False,NM,4.58e-05,225
mp-863665,Pm2CuIr,-0.523522236249998,0.0,0.0,False,NM,1e-07,225
mp-1186454,Pm2CuNi,-0.19093916125000002,0.0,0.0,False,NM,1.94e-05,225
mp-863668,Pm2CuOs,-0.14791901875000202,0.0,0.0,False,NM,0.0,225
mp-1186462,Pm2CuPd,-0.47875115375000005,0.0,0.0,False,NM,2.5300000000000005e-05,225
mp-863669,Pm2CuPt,-0.698361048749998,0.0,0.0,False,NM,2.5300000000000005e-05,225
mp-863670,Pm2CuRh,-0.477929416249999,0.0,0.0,False,NM,0.0,225
mp-863671,Pm2CuRu,-0.21793904000000003,0.0,0.0,False,NM,1e-07,225
mp-865547,Pm2CuSi,-0.41108536499999804,0.0,0.0,False,NM,0.0012756999999990002,225
mp-863676,Pm2CuSn,-0.47064870875000103,0.0,0.0,False,NM,0.0013329,225
mp-1100765,Pm2GaAg,-0.47896736499999903,0.0,0.0,True,FM,0.2749566,225
mp-1186453,Pm2GaCu,-0.39487840625000104,0.0,0.0,False,NM,0.002808299999999,225
mp-1186461,Pm2GaHg,-0.598409183124999,0.0,0.0,True,FM,0.8315442,225
mp-1186509,Pm2GaRu,-0.3774039625,0.0,0.0,False,NM,0.00042669999999900006,225
mp-1186460,Pm2GaSn,-0.6260952887500011,0.0,0.0,False,NM,8e-06,225
mp-863684,Pm2GeAu,-0.825982106249998,0.0,0.0,True,FM,0.8909284,225
mp-863685,Pm2GePd,-0.7416578500000011,0.0,0.0,False,NM,3e-06,225
mp-863686,Pm2HgGe,-0.6666754206250011,0.0,0.0,False,NM,2.299999999999998e-06,225
mp-982615,Pm2InAg,-0.465665762500002,0.0,0.0,True,FM,0.2940769,225
mp-982613,Pm2InHg,-0.603960540625003,0.0,0.0,True,FM,0.8650606,225
mp-1186508,Pm2InSn,-0.6327155737500011,0.0,0.0,False,NM,6.05e-05,225
mp-863715,Pm2IrAu,-0.817601913749996,0.0,0.0,False,NM,3e-06,225
mp-863716,Pm2IrPd,-0.821508691250002,0.0,0.0,False,NM,4.9000000000000005e-06,225
mp-863721,Pm2IrPt,-0.9635367787499971,0.0,0.0,False,NM,9e-07,225
mp-863722,Pm2IrRh,-0.749361968750001,0.0,0.0,False,NM,0.0013599,225
mp-863740,Pm2IrRu,-0.455494499999999,0.0,0.0,False,NM,0.0001706,225
mp-863698,Pm2MgAl,-0.254176395,0.0,0.0,False,NM,5.5e-06,225
mp-1186474,Pm2MgCd,-0.191278022499999,0.0,0.0,False,NM,4.63e-05,225
mp-863705,Pm2MgGa,-0.331468791875,0.0,0.0,False,NM,5.6600000000000014e-05,225
mp-1186475,Pm2MgGe,-0.36981913124999904,0.0,0.0,False,NM,1e-05,225
mp-1186472,Pm2MgRu,-0.089125359999997,0.0,0.0,False,NM,5e-07,225
mp-863696,Pm2MgSi,-0.26432274250000104,0.0,0.0,False,NM,6.7e-06,225
mp-863703,Pm2MgSn,-0.43075507625000004,0.0,0.0,False,NM,4.9600000000000006e-05,225
mp-863704,Pm2MgTl,-0.24919348333333602,0.0,0.0,False,NM,0.00013869999999900002,225
mp-1186485,Pm2NiGe,-0.47923651125000005,0.0,0.0,False,NM,7.21e-05,225
mp-863713,Pm2NiIr,-0.519600313749999,0.0,0.0,False,NM,3.7900000000000006e-05,225
mp-1186481,Pm2NiPd,-0.49671235374999806,0.0,0.0,False,NM,0.0003075,225
mp-1186482,Pm2NiPt,-0.66270039625,0.0,0.0,False,NM,0.0071927,225
mp-863714,Pm2NiRh,-0.48908257374999603,0.0,0.0,False,NM,0.0,225
mp-863717,Pm2NiRu,-0.21115575500000003,0.0,0.0,False,NM,0.0159668,225
mp-1186473,Pm2PdAu,-0.828619471249999,0.0,0.0,False,NM,8.7e-06,225
mp-863725,Pm2PdPt,-1.007626048749998,0.0,0.0,False,NM,2.8e-06,225
mp-863726,Pm2PdRh,-0.7872124312499971,0.0,0.0,False,NM,1e-07,225
mp-863741,Pm2PdRu,-0.5072897900000011,0.0,0.0,False,NM,9.5e-05,225
mp-982772,Pm2PtAu,-1.024383191250002,0.0,0.0,False,NM,3.1400000000000004e-05,225
mp-863732,Pm2PtRh,-0.966914661250001,0.0,0.0,False,NM,3.9e-06,225
mp-863733,Pm2RuAu,-0.5138721350000061,0.0,0.0,True,FM,0.1518504,225
mp-1186486,Pm2RuPt,-0.661072997499999,0.0,0.0,True,FM,0.2185045,225
mp-863742,Pm2RuRh,-0.456424032499999,0.0,0.0,False,NM,9e-07,225
mp-863743,Pm2SiAg,-0.47706193624999904,0.0,0.0,False,NM,0.0003848,225
mp-865545,Pm2SiAu,-0.7100191050000001,0.0,0.0,True,FM,0.819928999999999,225
mp-866204,Pm2SiHg,-0.5530704818750001,0.0,0.0,False,NM,4.5e-06,225
mp-866209,Pm2SiNi,-0.38015387999999806,0.146940745937499,0.0,False,NM,2.5200000000000003e-05,225
mp-865468,Pm2SiPd,-0.700638282499998,0.0,0.0,False,NM,7e-07,225
mp-1186479,Pm2SiPt,-0.8284620799999971,0.0,0.0,False,NM,1.3900000000000002e-05,225
mp-865467,Pm2SnAu,-0.8121548862499991,0.0,0.0,True,FM,0.9316095,225
mp-977372,Pm2SnHg,-0.690669843125,0.0,0.0,False,NM,5.2100000000000006e-05,225
mp-864628,Pm2SnPd,-0.7636027337500011,0.0,0.0,False,NM,0.0044452,225
mp-1100762,Pm2TlAg,-0.40899353750000206,0.0,0.0,True,FM,0.2653373,225
mp-864629,Pm2TlCd,-0.46711447874999806,0.0,0.0,True,FM,0.9208765,225
mp-1186478,Pm2TlHg,-0.551013840625003,0.0,0.0,True,FM,0.9217226,225
mp-1186476,Pm2TlSn,-0.5949271487500021,0.0,0.0,False,NM,1.2e-06,225
mp-1186477,Pm2TlZn,-0.41929342750000104,0.0,0.0,False,NM,0.0202252,225
mp-982393,Pm2ZnAg,-0.308341131250003,0.0,0.0,False,NM,2.6300000000000002e-05,225
mp-977546,Pm2ZnGa,-0.5177212025000021,0.0,0.0,False,NM,2.1600000000000003e-05,225
mp-862742,Pm2ZnGe,-0.587247632500002,0.0,0.0,False,NM,8.599999999999999e-06,225
mp-982387,Pm2ZnHg,-0.44017543437500306,0.0,0.0,True,FM,0.7232715,225
mp-1186506,Pm2ZnIn,-0.48585479999999803,0.0,0.0,False,NM,6.900000000000002e-05,225
mp-862744,Pm2ZnIr,-0.5779780925000001,0.0,0.0,False,NM,1.3300000000000001e-05,225
mp-983236,Pm2ZnOs,-0.216994472500001,0.0,0.0,False,NM,6.799999999999997e-06,225
mp-862727,Pm2ZnPb,-0.49662083500000104,0.0,0.0,False,NM,5.9000000000000025e-05,225
mp-983154,Pm2ZnPt,-0.6883564187499981,0.0,0.0,False,NM,2.2e-06,225
mp-983229,Pm2ZnRh,-0.499349341249998,0.0,0.0,False,NM,7.0999999999999955e-06,225
mp-862728,Pm2ZnRu,-0.256387426249998,0.0,0.0,False,NM,0.007930399999999001,225
mp-862733,Pm2ZnSi,-0.48420925625000005,0.0,0.0,False,NM,3e-07,225
mp-862734,Pm2ZnSn,-0.577885615000003,0.0,0.0,False,NM,2e-06,225
mp-862876,PmAg2Pb,-0.32445833437500204,0.0,0.0,False,NM,0.0,225
mp-862877,PmAg2Sn,-0.40561575187500404,0.0,0.0,False,NM,1.6e-06,225
mp-862878,PmAg3,-0.196298743124994,0.007833941250002,0.0,False,NM,3e-07,225
mp-862872,PmAgAu2,-0.6382697956249991,0.0,0.0,False,NM,9.800000000000001e-06,225
mp-862874,PmAgHg2,-0.42187006187499704,0.0,0.0,False,NM,1.3e-06,225
mp-862837,PmAlAg2,-0.326297171874998,0.0,0.0,False,NM,8e-07,225
mp-862836,PmAlAu2,-0.7121874918749991,0.012212182857147001,0.0,False,NM,1e-07,225
mp-862838,PmAlCu2,-0.31003742437499804,0.0,0.0,False,NM,3e-07,225
mp-1186538,PmAu3,-0.712734601874998,0.02257995,0.0,False,NM,1.1000000000000001e-05,225
mp-862879,PmBiAu2,-0.6515261356249981,0.0,0.0,False,NM,2.899999999999999e-06,225
mp-862880,PmBiPd2,-0.7503148431249961,0.0,0.0,False,NM,1.1e-06,225
mp-973757,PmBiRh2,-0.499080320624997,0.092158152321424,0.0,False,NM,0.0095034,225
mp-862899,PmCd3,-0.348575549374995,0.0,0.0,False,NM,6e-07,225
mp-862889,PmCdAg2,-0.288498779375,0.0,0.0,False,NM,1.8700000000000004e-05,225
mp-862891,PmCdAu2,-0.715495366874996,0.0,0.0,False,NM,6.7e-06,225
mp-1186550,PmCdCu2,-0.173834951874997,0.020622373333338002,0.0,False,NM,6.099999999999997e-06,225
mp-862892,PmCdHg2,-0.47807935062500206,0.0,0.0,False,NM,6e-07,225
mp-862898,PmCdPd2,-0.6538971368749931,0.0,0.0,False,NM,0.0,225
mp-862897,PmCdPt2,-0.729889446875002,0.0,0.0,False,NM,2.7e-06,225
mp-862896,PmCdRh2,-0.509528406874999,0.047890462499999,0.0,False,NM,1.1e-06,225
mp-1186567,PmCu2Si,-0.42939070963871706,0.011396790569619002,0.0,False,NM,0.0004683,225
mp-862900,PmCu2Sn,-0.37142469937500106,0.0,0.0,False,NM,2.7e-06,225
mp-1186555,PmDyAl2,-0.424920303124999,0.028448150624996,0.0,False,NM,5.4e-06,225
mp-983426,PmDyCu2,-0.207095523125001,0.000230974583327,0.0,False,NM,5e-07,225
mp-983427,PmDyHg2,-0.571487456874997,0.0,0.0,False,NM,0.0015616999999990002,225
mp-983428,PmDyIn2,-0.610364498124997,0.0,0.0,False,NM,5e-07,225
mp-862902,PmDyMg2,-0.075224409791665,0.0,0.0,False,NM,3.9e-05,225
mp-984549,PmDyRh2,-0.767787562291665,0.0,0.0,False,NM,8.1e-05,225
mp-983429,PmDyRu2,-0.216377239791664,0.025600880000001002,0.0,False,NM,8.5e-06,225
mp-1186556,PmDyTl2,-0.47449113812500304,0.0,0.0,False,NM,0.0005486,225
mp-1186553,PmDyZn2,-0.35870054562499804,0.0,0.0,False,NM,0.0051354,225
mp-1186559,PmErAl2,-0.417013890208334,0.027150740833331,0.0,False,NM,5.8800000000000006e-05,225
mp-984335,PmErIn2,-0.589195662708331,0.0,0.0,False,NM,7e-07,225
mp-1186560,PmErPd2,-0.8661148052083331,0.0,0.0,False,NM,2.2800000000000005e-05,225
mp-1186566,PmErTl2,-0.34257577104166803,0.0,0.0,False,NM,0.0001148,225
mp-1186562,PmErZn2,-0.356873367708331,0.0,0.0,True,FM,0.4488717,225
mp-1186569,PmEuHg2,-0.5833015543749981,0.0,0.0,True,FM,7.289898,225
mp-1186575,PmEuPd2,-0.753076033124997,0.0,0.0,True,FM,7.1399263,225
mp-1186583,PmEuPt2,-0.989813320625004,0.0,0.0,True,FM,7.0134767,225
mp-1186577,PmEuRh2,-0.507044283125001,0.0,0.0,True,FM,6.6246903,225
mp-1186579,PmEuZn2,-0.27740943312500305,0.0,0.0,True,FM,7.1770092,225
mp-862903,PmGaAg2,-0.32887987145834,0.020437802500001,0.0,False,NM,0.0003379,225
mp-862905,PmGaAu2,-0.669522506874997,0.033916412083343006,0.0,False,NM,9.699999999999999e-06,225
mp-862906,PmGaCu2,-0.305898774375,0.0,0.0,False,NM,4.7e-06,225
mp-1186574,PmGaPd2,-0.7240823393749981,0.049754506250000004,0.0,False,NM,8.8e-06,225
mp-1186573,PmGaRh2,-0.673426958749999,0.0,0.0,False,NM,6e-07,225
mp-1186619,PmGdAl2,-0.41618293850000004,0.021026969375000003,0.0,True,FM,7.0483764,225
mp-1186596,PmGdCu2,-0.154377051875002,0.0,0.0,True,FM,7.2037864,225
mp-1186623,PmGdHg2,-0.559583213125009,0.0,0.0,True,FM,8.4591122,225
mp-1186624,PmGdIn2,-0.47602203020833206,0.0,0.0,True,FM,7.1801804,225
mp-1232424,PmGdMg2,-0.084720899374999,0.005874369999999,0.0,True,FM,8.5503151,225
mp-862909,PmGeAu2,-0.5644572468750011,0.096759646388896,0.0,False,NM,7.599999999999997e-06,225
mp-1186576,PmGePd2,-0.6631933831249991,0.015661453749998,0.0,False,NM,4.7e-06,225
mp-862910,PmH3,-0.630489730937499,0.0,0.0,False,NM,0.0,225
mp-1186580,PmHg3,-0.43407940999999506,0.0,0.0,False,NM,4e-07,225
mp-862912,PmHgAu2,-0.654513036250001,0.0,0.0,False,NM,2.499999999999999e-06,225
mp-862913,PmHgRh2,-0.442916833749997,0.11450203562500101,0.0,False,NM,4e-07,225
mp-1186588,PmHoAl2,-0.422310895624999,0.027548516145831002,0.0,False,NM,2.8e-06,225
mp-1186595,PmHoCu2,-0.210939768124998,0.0,0.0,False,NM,7.38e-05,225
mp-1186591,PmHoIn2,-0.45946751645833306,0.0,0.0,False,NM,3.15e-05,225
mp-1186598,PmHoIr2,-0.7224779306249981,0.0,0.0,True,FiM,0.3438595,225
mp-862918,PmHoMg2,-0.071573295624998,0.0,0.0,False,NM,0.000100599999999,225
mp-1186592,PmHoRh2,-0.7796415706249981,0.0,0.0,False,NM,0.000107799999999,225
mp-1186586,PmHoRu2,-0.22932091812500002,0.025333501249997004,0.0,False,NM,3.9e-06,225
mp-1186589,PmHoTl2,-0.46378927812499804,0.0,0.0,False,NM,0.0002489,225
mp-1186594,PmHoZn2,-0.328307593124998,0.0,0.0,False,NM,0.0011045,225
mp-862923,PmInAg2,-0.42557436187500003,0.0,0.0,False,NM,6e-06,225
mp-862917,PmInAu2,-0.785680726875,0.0,0.0,False,NM,2.8e-06,225
mp-862916,PmInCu2,-0.347931624374999,0.0,0.0,False,NM,0.0,225
mp-862919,PmInHg2,-0.47481824312500004,0.0074623050000110006,0.0,False,NM,0.0,225
mp-862922,PmInNi2,-0.288130974374997,0.0,0.0,False,NM,0.0001635,225
mp-862924,PmInPd2,-0.798036106874999,0.0,0.0,False,NM,4.7e-06,225
mp-862925,PmInPt2,-0.9193029718749981,0.0,0.0,False,NM,2.299999999999998e-06,225
mp-862921,PmInRh2,-0.7133583468750011,0.0,0.0,False,NM,2.7e-06,225
mp-1186604,PmLuAl2,-0.40610220354166404,0.024871883958333,0.0,False,NM,1.899999999999999e-06,225
mp-1186606,PmLuIn2,-0.561200213541663,0.0,0.0,False,NM,3.96e-05,225
mp-1186613,PmLuMg2,-0.063242918541666,0.007339684583332001,0.0,False,NM,4.06e-05,225
mp-1186607,PmLuTl2,-0.31508418270833405,0.0,0.0,False,NM,0.0001259,225
mp-1186608,PmLuZn2,-0.361856911041666,0.0,0.0,False,NM,0.00812,225
mp-1186616,PmMg2Sc,-0.050665650624999004,0.019916952499998003,0.0,False,NM,3.52e-05,225
mp-1186603,PmMg3,-0.09612774812499801,0.0,0.0,False,NM,3.7e-06,225
mp-862936,PmMgAg2,-0.28877439395833304,0.0,0.0,False,NM,2.6800000000000004e-05,225
mp-862933,PmMgAu2,-0.739687750625001,0.0,0.0,False,NM,9.499999999999994e-06,225
mp-862939,PmMgCd2,-0.307593135624999,0.0,0.0,False,NM,2.0700000000000002e-05,225
mp-862938,PmMgHg2,-0.46249008687500304,0.0,0.0,False,NM,1.4e-06,225
mp-862941,PmMgRh2,-0.5857218106250001,0.0,0.0,False,NM,1.1e-06,225
mp-1186609,PmMgTl2,-0.23443364729167201,0.0,0.0,False,NM,3.399999999999998e-06,225
mp-862937,PmMgZn2,-0.344056933125,0.0,0.0,False,NM,1.5e-06,225
mp-1018160,PmN,-1.727228733125002,0.0,0.0,False,NM,1e-07,225
mp-1186611,PmNdGa2,-0.62711548875,0.014411840312497001,0.0,False,NM,4.599999999999997e-06,225
mp-1186602,PmNdHg2,-0.5607897500000051,0.0,0.0,True,FM,0.878689699999999,225
mp-1186646,PmNdIn2,-0.627247433749996,0.0,0.0,False,NM,1.02e-05,225
mp-1186617,PmNdIr2,-0.677721496250001,0.0,0.0,True,FiM,0.3399261,225
mp-1186610,PmNdMg2,-0.085725138749999,0.006205555000000001,0.0,False,NM,2.76e-05,225
mp-1186615,PmNdRu2,-0.101992264374999,0.022830106874998,0.0,False,NM,0.0006441,225
mp-1247753,PmNdTl2,-0.38735337541666803,0.0,0.0,False,NM,4e-07,225
mp-1186618,PmNdZn2,-0.32051271874999804,0.0,0.0,False,NM,0.0003402,225
mp-862952,PmNi2Sn,-0.39439719562499903,0.0,0.0,False,NM,0.0002636,225
mp-862951,PmPbAu2,-0.6766938668749981,0.0,0.0,False,NM,2.1e-06,225
mp-862950,PmPd2Pb,-0.7041851493750001,0.0,0.0,False,NM,6e-07,225
mp-1186627,PmPrHg2,-0.555264278541663,0.0,0.0,True,FM,0.887926999999999,225
mp-1186698,PmPrIn2,-0.621125292291665,0.0,0.0,False,NM,1.3700000000000003e-05,225
mp-1186628,PmPrIr2,-0.640356214791665,0.0,0.0,True,FiM,0.3228973,225
mp-1186626,PmPrMg2,-0.084254717291665,0.0060323500000000006,0.0,False,NM,3e-07,225
mp-1186631,PmPrTl2,-0.50230098979167,0.0,0.0,False,NM,0.0002363,225
mp-1186630,PmPrZn2,-0.312410089791665,0.0,0.0,False,NM,7.55e-05,225
mp-1186639,PmPuAu2,-0.7441616190625021,0.0,0.0,True,FM,5.634765,225
mp-862958,PmRh2Pb,-0.5329534393749921,0.024465429999999,0.0,True,FM,0.8630865,225
mp-1232235,PmS,-2.308025775156249,0.0,0.0,False,NM,0.0,225
mp-862953,PmSbAu2,-0.682360229375,0.0,0.0,False,NM,3.9e-06,225
mp-862957,PmSbPd2,-0.867727009374998,0.0,0.0,False,NM,0.0,225
mp-862955,PmSbRh2,-0.670716754375,0.0,0.0,False,NM,0.002033499999999,225
mp-1232234,PmSe,-2.105092183281247,0.0,0.0,False,NM,0.0,225
mp-1186641,PmSmAl2,-0.41498189437499905,0.031216145312498004,0.0,False,NM,1.699999999999999e-06,225
mp-1186643,PmSmGa2,-0.636402394375,0.0,0.0,False,NM,1.8e-06,225
mp-983063,PmSmHg2,-0.562610520625007,0.0,0.0,True,FM,0.377658,225
mp-1186692,PmSmIn2,-0.6259891643749991,0.0,0.0,False,NM,5e-07,225
mp-1186644,PmSmIr2,-0.7222752668750011,0.0,0.0,False,NM,0.0053269,225
mp-862964,PmSmMg2,-0.08959694062500001,0.0,0.0,False,NM,2.2400000000000002e-05,225
mp-1186652,PmSmRh2,-0.7034249906249991,0.0,0.0,False,NM,9.380000000000003e-05,225
mp-1186645,PmSmRu2,-0.153870035000004,0.023387061874998002,0.0,False,NM,0.000544,225
mp-1186651,PmSmTl2,-0.38153090979166904,0.0,0.0,False,NM,0.0001415,225
mp-1186648,PmSmZn2,-0.32607027312500003,0.0,0.0,False,NM,3.5000000000000004e-05,225
mp-862956,PmSnAu2,-0.7305114218750001,0.0,0.0,False,NM,2.499999999999999e-06,225
mp-862963,PmSnPd2,-0.8273596768749981,0.0,0.0,False,NM,1.46e-05,225
mp-1186649,PmSnPt2,-0.869075646875003,0.0,0.0,False,NM,1.46e-05,225
mp-862961,PmSnRh2,-0.6780882956250001,0.0,0.0,True,FM,0.7671893,225
mp-1186650,PmTa3,0.499644540624998,0.499644540624998,0.0,False,NM,0.0004528,225
mp-862966,PmTlAg2,-0.29126743187499904,0.0,0.0,False,NM,0.0,225
mp-862965,PmTlAu2,-0.640160144374995,0.0,0.0,False,NM,8.9e-06,225
mp-862967,PmTlRh2,-0.515224799374998,0.04219407,0.0,False,NM,4.599999999999997e-06,225
mp-862968,PmTlTe2,-1.044794818541668,0.0,0.06620000000000001,False,NM,0.0,225
mp-1186663,PmTmAl2,-0.416717619374999,0.026600849583331,0.0,False,NM,1.2600000000000001e-05,225
mp-1186665,PmTmCu2,-0.21942918687500002,0.001158595625,0.0,False,NM,1.8500000000000002e-05,225
mp-1186654,PmTmMg2,-0.067126351875002,0.003456251249997,0.0,False,NM,1e-07,225
mp-1186655,PmTmRu2,-0.25959663187500004,0.023908705625001,0.0,False,NM,3e-07,225
mp-1186659,PmTmTl2,-0.442435934374998,0.0,0.0,False,NM,0.0001098,225
mp-1186657,PmTmZn2,-0.360951374374998,0.0,0.0,False,NM,0.1220777,225
mp-982869,PmYAl2,-0.42511474937500104,0.023962996249998002,0.0,False,NM,2e-07,225
mp-1186667,PmYCu2,-0.190438376875,0.005268060416664001,0.0,False,NM,1.69e-05,225
mp-1186707,PmYIn2,-0.6171018718750001,0.0,0.0,False,NM,5.02e-05,225
mp-1186681,PmYIr2,-0.6898656068750011,0.0,0.0,True,FiM,0.3481651,225
mp-862969,PmYMg2,-0.083812606875,0.0,0.0,False,NM,1.0100000000000002e-05,225
mp-1186677,PmYRh2,-0.7469928868749981,0.0,0.0,False,NM,0.0002473,225
mp-1186675,PmYTl2,-0.48345151437499806,0.0,0.0,False,NM,5.77e-05,225
mp-1186672,PmYZn2,-0.363672984375,0.0,0.0,True,FM,0.619084299999999,225
mp-862973,PmZn2Ag,-0.29587331312500303,0.009873838500002001,0.0,False,NM,1e-07,225
mp-862976,PmZn2Au,-0.484408536875001,0.044567955454553006,0.0,False,NM,2.499999999999999e-06,225
mp-862975,PmZn2Cd,-0.35038582437499904,0.0,0.0,False,NM,3.799999999999998e-06,225
mp-1186674,PmZn2Hg,-0.336408327083336,0.033074763333335006,0.0,False,NM,0.002242,225
mp-1186673,PmZnAg2,-0.22587639544643,0.0318305875,0.0,False,NM,0.08258599999999901,225
mp-862974,PmZnAu2,-0.6304956056249931,0.022101270000000003,0.0,False,NM,1.04e-05,225
mp-1186680,PmZnCu2,-0.15751167937500002,0.033245898333333,0.0,False,NM,0.0104922,225
mp-1186678,PmZnHg2,-0.377147839374998,0.024633410833331003,0.0,False,NM,3e-07,225
mp-1186679,PmZnRh2,-0.5221306493749991,0.0,0.0,False,NM,0.000286199999999,225
mp-97,Pr,0.008044545,0.008044545,0.0,False,NM,0.0047545,225
mp-1204245,Pr11Cd45,-0.319665135952374,0.0,0.0,False,NM,2.1e-06,216
mp-1199872,Pr11Hg45,-0.33660124608630704,0.027298406428570003,0.0,False,NM,0.3403596,216
mp-582883,Pr21Fe8Bi7C12,-0.494862913645834,0.0,0.0,True,FM,2.7649458,225
mp-975788,Pr2AgHg,-0.354060134375,0.0,0.0,True,FM,0.4128069,225
mp-861497,Pr2AgIr,-0.41165939374999905,0.05303814928442,0.0,False,NM,0.0009855,225
mp-861481,Pr2AgRu,-0.165707053749999,0.032508926249999,0.0,False,NM,0.0005139,225
mp-982010,Pr2CdAg,-0.254516923749997,0.007137937500001,0.0,True,FM,0.5770164,225
mp-1186682,Pr2CdHg,-0.44842564520833106,0.006442675000002,0.0,True,FM,0.943126999999999,225
mp-978095,Pr2CdPb,-0.580303501708321,0.024514244687502,0.0,False,NM,0.0014770999999990002,225
mp-982009,Pr2CdSn,-0.518202112083333,0.033678196937497004,0.0,False,NM,0.000117799999999,225
mp-861499,Pr2CuIr,-0.43411000881944506,0.06199009937499501,0.0,False,NM,0.0005652,225
mp-861588,Pr2CuRu,-0.13750002253787402,0.041332906249998004,0.0,False,NM,0.0026029,225
mp-1186684,Pr2GaAg,-0.38737868562499705,0.014460342500001002,0.0,True,FM,0.3666973,225
mp-861498,Pr2HgPb,-0.629327582708334,0.046344563281245005,0.0,False,NM,0.0014971,225
mp-978100,Pr2InAg,-0.353992265416664,0.0017778075000010002,0.0,True,FM,0.4338762,225
mp-978089,Pr2IrAu,-0.6379835933333321,0.06477693107142901,0.0,False,NM,0.0012163,225
mp-861483,Pr2IrPd,-0.6643380683333321,0.036950731696427,0.0,False,NM,0.021498899999999002,225
mp-1186687,Pr2IrRh,-0.5641012158333321,0.06495158794642701,0.0,False,NM,1.3900000000000002e-05,225
mp-1186689,Pr2MgAl,-0.230185902083333,0.004658978749999001,0.0,False,NM,9.3e-06,225
mp-1186693,Pr2MgCd,-0.17960888958333102,0.011397860000002001,0.0,False,NM,0.0007926999999990001,225
mp-1186729,Pr2MgIn,-0.309022076250001,0.0,0.0,False,NM,0.0006359,225
mp-861505,Pr2MgTl,-0.24411787041667,0.009797930416667001,0.0,False,NM,0.0008099,225
mp-975656,Pr2NiIr,-0.39520574083333304,0.08262049187499801,0.0,False,NM,0.0029372,225
mp-861510,Pr2SnHg,-0.5995394877083331,0.010916940937500001,0.0,False,NM,4.9100000000000014e-05,225
mp-978085,Pr2TlAg,-0.307970379583333,0.0,0.0,True,FM,0.4796333,225
mp-861594,Pr2TlCd,-0.45231644083332806,0.0,0.0,True,FM,0.9668156,225
mp-1186695,Pr2TlHg,-0.537052227708329,0.0,0.0,True,FM,0.9789739,225
mp-1186697,Pr2TlIn,-0.5543764683333301,0.006829200000005001,0.0,False,NM,3.2e-06,225
mp-978083,Pr2ZnAg,-0.260080206249999,0.005324622499999001,0.0,True,FM,0.568755799999999,225
mp-1186694,Pr2ZnGa,-0.42706240520833305,0.008386010000000001,0.0,False,NM,1.02e-05,225
mp-975650,Pr2ZnHg,-0.36310890645833505,0.018418674999999,0.0,True,FM,0.6716565,225
mp-1186712,Pr2ZnIn,-0.27823267499999904,0.10956073000000101,0.0,False,NM,0.020127,225