material_id,formula,formation_energy,ehull,band_gap,is_magnetic,magnetic_ordering,total_magnetization,spacegroup
mp-29250,Li6VCl8,-1.9455690673333341,0.0,1.5371000000000001,True,FM,3.0000004,225
mp-765804,Li6VF8,-3.075085634666667,0.056394783333334,3.5191,True,FM,2.9999792999999992,225
mp-862613,LiAc2Ga,-0.261359985416667,0.021974541770831003,0.0,False,NM,1e-06,225
mp-862667,LiAc2Ge,-0.29585869083333605,0.0,0.0,False,NM,0.0003871,225
mp-862685,LiAc2Ir,-0.31991860541666,0.026701294791664002,0.0,False,NM,4.1e-06,225
mp-1185294,LiAc2Pb,-0.265751979583329,0.0,0.0,False,NM,0.4198186,225
mp-862686,LiAc2Ru,-0.0017420766666660001,0.08577427229166501,0.0,False,NM,0.0001391,225
mp-861876,LiAc2Si,-0.17383934208333401,0.0,0.0,False,NM,8.19e-05,225
mp-1185292,LiAc2Sn,-0.34959484583333605,0.008771794999999001,0.0,False,NM,0.009879599999999001,225
mp-1185293,LiAc2Tl,-0.25445624791666405,0.0,0.0,False,NM,0.008320000000000001,225
mp-1185285,LiAcHg2,-0.466574312291669,0.0,0.0,False,NM,1.16e-05,225
mp-1185329,LiAcRh2,-0.352625018541669,0.0,0.29550000000000004,False,NM,0.0,225
mp-864755,LiAcTe2,-1.4200840447916652,0.0,0.5567000000000001,False,NM,0.0,225
mp-862549,LiAcTl2,-0.38953681104166504,0.0,0.0,False,NM,2e-07,225
mp-9472,LiAg2Ge,-0.158556680416666,0.0,0.0,False,NM,1.4e-06,225
mp-974642,LiAg2Pb,-0.12273730166666401,0.016027206666666002,0.0,False,NM,1.04e-05,225
mp-974634,LiAg2Pd,-0.19385903416666703,0.01689044,0.0,False,NM,2e-07,225
mp-1185309,LiAg2Sb,-0.25240234104166903,0.006671043749999,0.0,False,NM,8.820000000000004e-05,225
mp-2927,LiAg2Sn,-0.23047338291666503,0.0,0.0,False,NM,1.1e-06,225
mp-1235663,LiAg4(RuO3)4,-1.005767312857143,0.146596418333332,0.0,False,NM,0.029916199999999,216
mp-1235873,LiAg4(RuO3)4,-1.012967516190476,0.13939621499999902,0.0,False,NM,0.0087581,216
mp-1235058,LiAgClO4,-0.292975779285714,0.634395264285712,0.0,False,NM,0.005562,216
mp-1235767,LiAgClO4,-0.47581819642857104,0.45155284714285504,0.0,True,FM,0.8246562,216
mp-1100393,LiAgSe,-0.6178952589930561,0.17461224,0.21399999999999902,False,NM,2.75e-05,216
mp-962069,LiAgTe,-0.560684517222221,0.126158813333332,0.0,False,NM,0.0009423999999990001,216
mp-1185321,LiAl2Au,-0.404253921666665,0.062091590833333,0.0,False,NM,1.699999999999999e-06,225
mp-1185307,LiAl2Cu,-0.18658568583333202,0.008947646500000002,0.0,False,NM,3.799999999999998e-06,225
mp-1207174,LiAl2Ge,0.075042665416666,0.29355776,0.0,False,NM,0.0022583,225
mp-11512,LiAl2Ir,-0.8143778916666691,0.0,0.0,False,NM,5.299999999999997e-06,225
mp-862318,LiAl2Ni,-0.489748536666665,0.0,0.0,False,NM,4.5e-06,225
mp-982667,LiAl2Os,-0.48010702583333004,0.022611721666667,0.0,False,NM,0.0039473,225
mp-30817,LiAl2Pd,-0.6666604541666651,0.0,0.0,False,NM,1.3200000000000002e-05,225
mp-30819,LiAl2Pt,-0.909099746666665,0.0,0.0,False,NM,3.299999999999999e-06,225
mp-30821,LiAl2Rh,-0.7617179716666661,0.0,0.0,False,NM,1.3e-06,225
mp-982666,LiAl2Tc,-0.329450549365075,0.024522562857143004,0.0,False,NM,3.24e-05,225
mp-1235214,LiAl4Cd2O8,-2.296249729555555,0.524866846416665,0.0,False,NM,3.01e-05,216
mp-11947,LiAlAg2,-0.23783073416666503,0.0,0.0,False,NM,7e-07,225
mp-862717,LiAlAu2,-0.581746309166668,0.0,0.0,False,NM,6e-07,225
mp-867272,LiAlCu2,-0.22127855583333303,0.0,0.0,False,NM,3.1e-06,225
mp-5920,LiAlGe,-0.291353459444444,0.0,0.052699999999999005,False,NM,2e-07,216
mp-961645,LiAlGe,0.04904599388888901,0.34039945333333405,0.0,False,NM,0.001516,216
mp-867812,LiAlNi2,-0.368700581666667,0.019529635208330003,0.0,False,NM,0.0006121,225
mp-867820,LiAlPd2,-0.8191622916666641,0.0,0.0,False,NM,2.4e-06,225
mp-862296,LiAlPt2,-1.020856209166666,0.0,0.0,False,NM,5.299999999999997e-06,225
mp-862297,LiAlRh2,-0.7054825141666641,0.0,0.0,False,NM,2.7e-06,225
mp-3161,LiAlSi,-0.19126816777777703,0.0,0.112099999999999,False,NM,0.0,216
mp-1185304,LiAlZn2,-0.14278718916666702,0.0072133955555560006,0.0,False,NM,8.560000000000001e-05,225
mp-862321,LiAsPd2,-0.5105556197916631,0.03302843736607,0.0,False,NM,8e-07,225
mp-862335,LiAsRh2,-0.583840619791665,0.0,0.0,False,NM,1.7400000000000003e-05,225
mp-1103394,LiB11,0.779647966458332,0.8748244126388881,0.0,False,NM,0.0009029999999990001,216
mp-1103613,LiB11,0.24769391479166503,0.342870360972222,0.0,False,NM,0.0002252,216
mp-631545,LiBBr2,0.45208744437500004,1.679203853472223,0.6011000000000001,False,NM,0.0001804,216
mp-1222386,LiBH4,-0.38186007458333304,0.066722919166665,9.999999999976698e-05,False,NM,0.0001904,216
mp-862377,LiBe2Ir,-0.386029505833333,0.0,0.0,False,NM,1e-07,225
mp-1185317,LiBe2Pt,-0.50947539083333,0.0,0.0,False,NM,1e-07,225
mp-982974,LiBeAu2,-0.333415724583335,0.005794140624999,0.0,False,NM,4.1e-06,225
mp-862312,LiBePd2,-0.5522386020833321,0.0,0.0,False,NM,3e-06,225
mp-862316,LiBePt2,-0.684067622083332,0.0,0.0,False,NM,2.2e-06,225
mp-1100398,LiBeSb,-0.325963126111111,0.0,1.010499999999999,False,NM,0.0008671999999990001,216
mp-861905,LiBiPd2,-0.431687925416664,0.0,0.0,False,NM,1e-07,225
mp-861903,LiBiRh2,-0.301772305416665,0.0,0.0,False,NM,2.4700000000000004e-05,225
mp-23259,LiBr,-1.825998821666666,0.0098957125,4.9234,False,NM,0.0,225
mp-862632,LiCa2Al,-0.158353436666667,0.0,0.0,False,NM,0.00021459999999900003,225
mp-867803,LiCa2Cd,-0.18790637333333202,0.0,0.0,False,NM,4.25e-05,225
mp-867805,LiCa2Ga,-0.30047535416666604,0.000945809583332,0.0,False,NM,0.000174,225
mp-1206798,LiCa2Ge,-0.39443327458333205,0.06733307354166601,0.0,False,NM,0.0011194,225
mp-867210,LiCa2Hg,-0.296985878958334,0.020214906782407,0.0,False,NM,0.007806599999999,225
mp-867211,LiCa2In,-0.383010116666667,0.0,0.0,False,NM,0.000135399999999,225
mp-867222,LiCa2Ir,-0.23301754666666502,0.019243723333332,0.0,False,NM,0.0,225
mp-975368,LiCa2Mg,-0.018665140416667,0.036161670833333,0.0,False,NM,0.0127782,225
mp-1185325,LiCa2Pb,-0.395827720833332,0.021662026093749003,0.0,False,NM,0.199283699999999,225
mp-1205694,LiCa2ReO6,-2.649083681583334,0.09733272906666601,1.5831,False,NM,2.44e-05,225
mp-862764,LiCa2Rh,-0.20804223166666702,0.017057908333331002,0.0,False,NM,1.83e-05,225
mp-867167,LiCa2Tl,-0.35548957666666603,0.0,0.0,False,NM,0.003366999999999,225
mp-12609,LiCa6Ge,-0.049072172291666,0.18479811265625,0.0,False,NM,0.174709299999999,225
mp-961684,LiCaAs,-1.147813833888888,0.088278880833332,1.876799999999999,False,NM,7.730000000000002e-05,216
mp-1517096,LiCaEuFeO6,-2.156453924833334,0.16308141218333402,0.0,True,FiM,8.0038552,216
mp-961723,LiCaRh,0.061849753148147,0.32182332037037403,0.253099999999999,False,NM,2.5600000000000002e-05,216
mp-1100409,LiCaSb,-0.8429311677777771,0.16311469749999902,0.9841000000000001,False,NM,1.73e-05,216
mp-867204,LiCd2Ag,-0.20850401541666402,0.0,0.0,False,NM,1e-07,225
mp-867160,LiCd2Au,-0.36756647666666303,0.0,0.0,False,NM,1.4e-06,225
mp-1185314,LiCd2Cu,-0.14303163666666602,0.022255256249998003,0.0,False,NM,5e-07,225
mp-1185212,LiCd2Ni,-0.11027837666666501,0.05500851625000001,0.0,False,NM,5.42e-05,225
mp-867196,LiCd2Pd,-0.38632143833333105,0.0,0.0,False,NM,5.4e-06,225
mp-867206,LiCd2Pt,-0.40939557083333106,0.0,0.0,False,NM,1.1e-06,225
mp-867115,LiCd2Rh,-0.283306771666666,0.0,0.0,False,NM,1e-06,225
mp-973940,LiCd3,-0.176872759166665,0.015826024999999,0.0,False,NM,3e-07,225
mp-867872,LiCdAg2,-0.156172906666668,0.012477866249998,0.0,False,NM,3e-07,225
mp-1009006,LiCdAs,-0.20370357694444402,0.256337686666665,0.0,False,NM,7.599999999999997e-06,216
mp-1018135,LiCdAs,-0.46004126361110903,0.0,0.0,False,NM,0.0,216
mp-867877,LiCdAu2,-0.39236425166666605,0.012892592555569002,0.0,False,NM,0.0,225
mp-1185207,LiCdHg2,-0.21375085041666902,0.0,0.0,False,NM,3e-07,225
mp-10687,LiCdP,-0.20471346696427903,0.22343453944444502,0.0,False,NM,0.000451599999999,216
mp-867924,LiCdPd2,-0.43604072583333103,0.0,0.0,False,NM,8e-07,225
mp-1100425,LiCdSb,-0.27010311111111,0.11245594090909102,0.0,False,NM,9.150000000000003e-05,216
mp-1185234,LiCe2Al,-0.08044246808333,0.13615519541666601,0.0,False,NM,0.029266999999999002,225
mp-1185229,LiCe2Ga,-0.21694490208333403,0.10794508354166801,0.0,True,FM,0.1285345,225
mp-1185224,LiCe2Os,-0.06016569583333101,0.052616313291667,0.0,True,FM,0.5754634,225
mp-1185218,LiCe2Pb,-0.10584944583333201,0.187568723035715,0.0,True,FM,2.584641399999999,225
mp-973561,LiCe2Ru,-0.09142428333333101,0.135033146527777,0.0,True,FiM,0.6861899,225
mp-1185334,LiCeHg2,-0.414726450416665,0.011344918333328001,0.0,True,FM,0.873669799999999,225
mp-11830,LiCeSn,-0.36155916611110905,0.168594930416666,0.0,True,FM,0.9824166,216
mp-867295,LiCeTl2,-0.408952979166663,0.0,0.0,True,FM,1.0333838,225
mp-1185346,LiCeZn2,-0.18285100083333203,0.038064674166667006,0.0,True,FM,0.816568099999999,225
mp-22905,LiCl,-2.005343378333332,0.0204618825,6.25,False,NM,0.0,225
mp-13914,LiCo2Ge,-0.21183492458333303,0.0,0.0,False,NM,1.8700000000000004e-05,225
mp-867293,LiCo2Si,-0.38993630583333305,0.0,0.0,False,NM,3.299999999999999e-06,225
mp-38489,LiCo7O8,-1.278424718958334,0.11186358343750101,0.0,True,FiM,18.0000001,225
mp-1236197,LiCr4(HgO4)2,-1.539800201222223,0.42275133891665906,0.0,True,FM,12.8000248,216
mp-1211167,LiCr4GaS8,-1.093763872202379,0.0,0.37619999999999904,True,FM,12.000452,216
mp-1211182,LiCr4InS8,-1.072808712857142,0.0,0.36920000000000003,True,FM,12.0,216
mp-1236414,LiCrO2,-1.304004118333333,1.104617734999999,0.0,True,FM,1.2887966,225
mp-1185306,LiCrRh2,-0.151835279166668,0.0,0.0,True,FiM,2.1201973,225
mp-1235296,LiCu2(RhO2)4,-0.8221861595555551,0.34913176166666604,0.0,True,FM,0.989881999999999,216
mp-567097,LiCu2Ge,-0.182762122083333,0.0,0.0,False,NM,0.0,225
mp-7473,LiCu2Si,-0.202122575833333,0.0,0.0,False,NM,2e-07,225
mp-974058,LiCu3,0.014286865833334002,0.025561489999999003,0.0,False,NM,1.899999999999999e-06,225
mp-1185322,LiCuAu2,-0.30308169833333404,0.014459261249997002,0.0,False,NM,4.999999999999999e-06,225
mp-1009014,LiCuO,-1.031819572777777,0.4011270175,0.0,False,NM,0.0056152,216
mp-862657,LiCuPd2,-0.28482597666666504,0.0,0.0,False,NM,3.799999999999998e-06,225
mp-861913,LiDy2Al,-0.24952011416666703,0.008685380208333001,0.0,False,NM,0.000213,225
mp-1185347,LiDy2Ga,-0.38009337802083404,0.022431281510417,0.0,False,NM,0.0005254,225
mp-1185324,LiDy2In,-0.356310399166666,0.014698481249997002,0.0,False,NM,0.000978,225
mp-861915,LiDy2Ir,-0.57367242166666,0.0,0.0,False,NM,4.4e-06,225
mp-867776,LiDy2Os,-0.282779916666669,0.0,0.0,False,NM,3e-07,225
mp-1185326,LiDy2Pt,-0.74672283895833,0.044908122291666006,0.0,False,NM,0.001584,225
mp-1185331,LiDy2Rh,-0.47710729166666405,0.017119758452377003,0.0,False,NM,2.6e-06,225
mp-867111,LiDy2Ru,-0.28046310166666505,0.0,0.0,False,NM,9.6e-06,225
mp-862588,LiDy2Tc,-0.045281677395838,0.031292116979166,0.0,False,NM,0.004074299999999,225
mp-1185327,LiDy2Tl,-0.281625983333331,0.020664610624997002,0.0,False,NM,0.0005618,225
mp-861885,LiDyAu2,-0.712369966249997,0.001754163333333,0.0,False,NM,0.0,225
mp-861886,LiDyHg2,-0.5098941516666641,0.0,0.0,False,NM,7e-07,225
mp-974059,LiDyIn2,-0.48719835541666606,0.026949344999998,0.0,False,NM,3e-07,225
mp-867108,LiDyTl2,-0.394521222916672,0.0,0.0,False,NM,3e-06,225
mp-862493,LiEr2Al,-0.23873919583333603,0.014880292083329002,0.0,False,NM,9.78e-05,225
mp-1185330,LiEr2Au,-0.495437786250001,0.065075226041667,0.0,False,NM,0.0002557,225
mp-976793,LiEr2Ga,-0.37410183833333405,0.027004099947916003,0.0,False,NM,0.0004325,225
mp-976743,LiEr2In,-0.336645170833332,0.014228818958333,0.0,True,FM,0.35786,225
mp-862554,LiEr2Ir,-0.6210271408333341,0.0,0.0,False,NM,3.9e-05,225
mp-862558,LiEr2Os,-0.276937678333331,0.0,0.0,False,NM,8.9e-06,225
mp-862660,LiEr2Rh,-0.518117508333331,0.007605393166666001,0.0,False,NM,2.09e-05,225
mp-862661,LiEr2Ru,-0.319680523333332,0.0,0.0,False,NM,4.4e-06,225
mp-867139,LiEr2Tc,-0.07237953625,0.021101869479167,0.0,False,NM,0.010313,225
mp-976744,LiEr2Tl,-0.177070156666667,0.027121833055557,0.0,False,NM,0.0002702,225
mp-862599,LiErAu2,-0.7798675875000001,0.008297179531254001,0.0,False,NM,1.5e-06,225
mp-862618,LiErHg2,-0.493538861250002,0.0,0.0,False,NM,1.8e-06,225
mp-862619,LiErIn2,-0.468209642499999,0.017951895312499,0.0,False,NM,1.4e-06,225
mp-862492,LiErTl2,-0.300405797500002,0.0,0.0,False,NM,1.6e-06,225
mp-1185341,LiEu2Cd,-0.18653430541666402,0.010425947499999,0.0,True,FM,14.4378158,225
mp-1185349,LiEu2Hg,-0.299002903958339,0.0072589316666620005,0.0,True,FM,14.4400863,225
mp-1185339,LiEu2Ir,-0.287804431666671,0.011091763154752,0.0,True,FiM,14.067939,225
mp-1185335,LiEu2Tl,-0.293492609166669,0.0,0.0,True,FM,14.0484412,225
mp-865175,LiEuTl2,-0.40085367041666503,0.0,0.0,True,FM,7.0599177,225
mp-1519180,LiEuYFeO6,-2.439296235833333,0.19331497797656602,0.0,True,FM,9.0009071,216
mp-1138,LiF,-3.188945303333333,0.0,8.7161,False,NM,0.0,225
mp-757153,LiFe5O8,-1.62827016095238,0.14677701910714602,1.052199999999999,True,FM,24.9999468,216
mp-973979,LiFePd2,-0.242395083333332,0.012542315833334,0.0,True,FM,3.9033777,225
mp-862290,LiFeRh2,-0.12166589083333301,0.0,0.0,True,FM,4.4817792,225
mp-1185316,LiGa2Co,-0.25212151666666704,0.035618143749999005,0.0,False,NM,1.1e-06,225
mp-5419,LiGa2Ir,-0.5660502191666691,0.0,0.0,False,NM,0.0,225
mp-867223,LiGa2Ni,-0.39399769166666504,0.004769647954544,0.0,False,NM,0.0,225
mp-5159,LiGa2Pd,-0.534250166666666,0.0,0.0,False,NM,1.8e-06,225
mp-20363,LiGa2Pt,-0.6194263145833321,0.0,0.0,False,NM,7e-07,225
mp-4913,LiGa2Rh,-0.550842277083332,0.0,0.0,False,NM,8.2e-06,225
mp-20567,LiGa2Ru,-0.36979460291666805,0.005738749583329,0.0,False,NM,2.1e-06,225
mp-865963,LiGaAg2,-0.212278126666666,0.0,0.0,False,NM,1e-07,225
mp-861900,LiGaAu2,-0.443066271666666,0.0,0.0,False,NM,1.4e-06,225
mp-861901,LiGaCu2,-0.204676986666665,0.0,0.0,False,NM,0.0,225
mp-867197,LiGaNi2,-0.312183139166666,0.0,0.0,False,NM,2.2e-06,225
mp-867198,LiGaPd2,-0.704696346666665,0.0,0.0,False,NM,1.5e-06,225
mp-867170,LiGaPt2,-0.7146841527083331,0.0,0.0,False,NM,4e-07,225
mp-862730,LiGaRh2,-0.5309520077083321,0.0,0.0,False,NM,5e-07,225
mp-11390,LiGaSi,-0.135539720277778,0.074605104999999,0.1885,False,NM,0.0,216
mp-1185392,LiGd2Al,-0.21095196666666602,0.0066834473333330004,0.0,True,FM,15.328016,225
mp-1185394,LiGd2Ga,-0.32761710520833404,0.0,0.0,True,FM,15.307721,225
mp-1185362,LiGd2In,-0.348397162916668,0.020167366249999003,0.0,True,FM,14.8328339,225
mp-862765,LiGd2Ir,-0.517456589166663,0.0,0.0,True,AFM,0.0001069,225
mp-1185354,LiGd2Os,-0.16958310416666902,0.0,0.0,True,FiM,14.5299233,225
mp-1185609,LiGd2Rh,2.089858764166667,2.485673194166665,0.0,True,FM,2.882075699999999,225
mp-866058,LiGd2Ru,-0.19153742541666502,0.0,0.0,True,FiM,14.5210174,225
mp-1185378,LiGd2Tl,-0.272816596666665,0.0,0.0,True,FM,15.8931595,225
mp-867244,LiGdAu2,-0.712535591666664,0.0,0.0,True,FM,7.4203079,225
mp-867969,LiGdHg2,-0.47193431291666604,0.0,0.0,True,FM,7.3475332,225
mp-1185472,LiGdIn2,0.766301585208339,1.250184536874996,0.0,True,FM,1.1825702,225
mp-1185386,LiGdTl2,-0.34128141916666205,0.008104440000003,0.0,True,FM,6.9216705,225
mp-1185318,LiGe2Ir,-0.31759460583333304,0.013681885343748002,0.0,False,NM,2.499999999999999e-06,225
mp-861881,LiGeAu2,-0.32062257458333404,0.0,0.0,False,NM,5e-07,225
mp-861882,LiGeIr2,-0.41238339958333103,0.0,0.0,False,NM,8e-07,225
mp-29633,LiGePd2,-0.609234879583333,0.0,0.0,False,NM,2e-07,225
mp-1185305,LiGePt2,-0.5349002470833301,0.003090732500004,0.0,False,NM,7e-06,225
mp-13322,LiGeRh2,-0.6493432920833331,0.0,0.0,False,NM,1.3e-06,225
mp-23703,LiH,-0.48936213770833303,0.0,2.981,False,NM,0.0,225
mp-976598,LiHf2Ir,-0.5352274958333311,0.014170271944447001,0.0,False,NM,1.3e-06,225
mp-862684,LiHf2Os,-0.46003342916667106,0.0,0.0,False,NM,2.4500000000000003e-05,225
mp-861875,LiHf2Re,-0.206355308958332,0.0,0.0,False,NM,0.0005993999999990001,225
mp-976600,LiHf2Tc,-0.23161977416667,0.03251200333333,0.0,False,NM,2.4e-06,225
mp-1185323,LiHfAu2,-0.57096973916667,0.013249803749992002,0.0,False,NM,2.1e-06,225
mp-862610,LiHfIr2,-0.6952293808333351,0.0,0.0,False,NM,3.399999999999998e-06,225
mp-867119,LiHfPd2,-0.622948171666667,0.013918019128791,0.0,False,NM,3.09e-05,225
mp-867834,LiHfPt2,-1.022987341666663,0.0,0.0,False,NM,7e-07,225
mp-867148,LiHfRh2,-0.770482331666666,0.0,0.0,False,NM,1.4e-06,225
mp-631309,LiHg2Os,0.6884562977083271,0.882870438749996,0.0,False,NM,0.0007151999999990001,216
mp-861896,LiHg2Pd,-0.313890302083337,0.0,0.0,False,NM,1.67e-05,225
mp-973824,LiHg3,-0.17506161729166703,0.025750848750000003,0.0,False,NM,2e-07,225
mp-862737,LiHgPd2,-0.35285247145833304,0.0,0.0,False,NM,2.2e-06,225
mp-973841,LiHo2Al,-0.247774739166665,0.010715533333332,0.0,False,NM,6.790000000000001e-05,225
mp-867145,LiHo2Ga,-0.30585662770833,0.026632636354167002,0.0,False,NM,0.000362299999999,225
mp-1185328,LiHo2In,-0.24687143749999502,0.013750826875001001,0.0,False,NM,0.0094472,225
mp-867913,LiHo2Ir,-0.59292876833333,0.0,0.0,False,NM,1.5600000000000003e-05,225
mp-867269,LiHo2Os,-0.29926417916666603,0.0,0.0,False,NM,6.4e-06,225
mp-867267,LiHo2Pt,-0.7629036908333291,0.039627764166667,0.0,False,NM,0.0545255,225
mp-865954,LiHo2Rh,-0.49307085583332905,0.011670419345239,0.0,False,NM,4e-07,225
mp-865959,LiHo2Ru,-0.29544314583332804,0.0,0.0,False,NM,2.499999999999999e-06,225
mp-867289,LiHo2Tc,-0.058889215208335004,0.026427416041666003,0.0,False,NM,0.0051123,225
mp-862722,LiHoAu2,-0.776720307916662,0.009861843437505001,0.0,False,NM,5.5e-06,225
mp-861874,LiHoHg2,-0.502292001666667,0.0,0.0,False,NM,1e-07,225
mp-862676,LiHoIn2,-0.362932850416664,0.009626300312499001,0.0,False,NM,3.1e-06,225
mp-973831,LiHoPd2,-0.72152507914393,0.028434986500002,0.0,False,NM,0.0015141,225
mp-973826,LiHoSn2,-0.39757147958333106,0.144825077500001,0.0,False,NM,0.001047999999999,225
mp-862677,LiHoTl2,-0.38589856041667003,0.0,0.0,False,NM,2e-07,225
mp-22899,LiI,-1.393584991666666,0.028739372500000002,4.2306,False,NM,0.0,225
mp-1185379,LiIn2Ag,-0.20419727041666302,0.016469542500001003,0.0,False,NM,0.0005463,225
mp-31208,LiIn2Ir,-0.419264766666664,0.0,0.0,False,NM,7.2e-06,225
mp-1185381,LiIn2Ni,-0.27338903666666403,0.017648548000014003,0.0,False,NM,3e-07,225
mp-20801,LiIn2Pd,-0.519555554166665,0.0,0.0,False,NM,0.0,225
mp-20265,LiIn2Pt,-0.602446651666664,0.0,0.0,False,NM,1.1e-06,225
mp-13396,LiIn2Rh,-0.5004476091666661,0.0,0.0,False,NM,1.5e-06,225
mp-672340,LiIn2Ru,-0.23092949649999903,0.037866556666667,0.0,False,NM,8.5e-06,225
mp-1236237,LiIn4(Ge2O7)2,-1.925618329565217,0.159258867934783,0.0,False,NM,2.54e-05,216
mp-1236709,LiIn4(HgO4)2,-1.3886077623333342,0.285131310333333,0.0,False,NM,6.2e-06,216
mp-567787,LiInAg2,-0.23021192916666403,0.0,0.0,False,NM,2.2e-06,225
mp-867287,LiInAu2,-0.45810238666666603,0.0,0.0,False,NM,0.0,225
mp-16343,LiInGe,-0.22459984833333202,0.0,0.0,False,NM,5e-07,216
mp-1185367,LiInHg2,-0.21137526791666802,0.0,0.0,False,NM,1.2e-06,225
mp-867926,LiInPd2,-0.6129045441666641,0.0,0.0,False,NM,7.0999999999999955e-06,225
mp-862774,LiInPt2,-0.633030456666666,0.0,0.0,False,NM,9e-07,225
mp-862775,LiInRh2,-0.343516731666667,0.011111783333337,0.0,False,NM,5.4400000000000014e-05,225
mp-1100436,LiInSi,0.170302643333333,0.33775997833333105,0.0,False,NM,0.00013859999999900002,216
mp-1222280,LiInSn,-0.20924103833333102,0.008003621111112,0.0,False,NM,8e-07,216
mp-568466,LiInSn,-0.179724341666665,0.037520317777778006,0.0,False,NM,0.0015597999999990002,216
mp-631269,LiIrRh,0.5839936288888811,0.7929151483333141,0.0,False,NM,0.005910899999999,216
mp-973874,LiLa2Al,-0.218679961666666,0.027773353645834,0.0,False,NM,3.2800000000000004e-05,225
mp-867806,LiLa2Ir,-0.37847197583333503,0.089247042083333,0.0,False,NM,0.0006326,225
mp-867813,LiLa2Os,-0.055609138333334,0.0457407775,0.0,False,NM,2.5200000000000003e-05,225
mp-867905,LiLa2Ru,-0.12246139083333402,0.078111384523809,0.0,False,NM,0.0036347,225
mp-1206458,LiLa2VO6,-3.145690757333334,0.10350727116666401,1.9389,False,NM,0.003157799999999,225
mp-1185375,LiLaAu2,-0.672893384583334,0.010424881250001001,0.0,False,NM,3.9900000000000014e-05,225
mp-861624,LiLaHg2,-0.5219357516666671,0.0,0.0,False,NM,2.3800000000000003e-05,225
mp-1222315,LiLaTi2O6,-3.3828441585,0.11915568849999701,1.757099999999999,False,NM,0.0017944999999990002,225
mp-1185376,LiLaTl2,-0.356116331250005,0.0,0.0,False,NM,7e-07,225
mp-973058,LiLu2Al,-0.232217209999998,0.004134654999997,0.0,False,NM,0.00021329999999900002,225