material_id,formula,formation_energy,ehull,band_gap,is_magnetic,magnetic_ordering,total_magnetization,spacegroup
mp-1111039,CsRb2GaI6,-1.199179196215517,0.13864168474999902,1.1875,False,NM,0.0023833,225
mp-1111780,CsRb2GdCl6,-2.416271157465517,0.07812839137500201,3.2239,True,FM,7.0000661,225
mp-1111779,CsRb2InBr6,-1.669765428132183,0.07785296749999801,2.6764,False,NM,0.0003256,225
mp-1113607,CsRb2InCl6,-1.955962466132183,0.05612353133332901,3.5101,False,NM,0.0002898,225
mp-989595,CsRb2InF6,-2.916283768132184,0.054840909500004004,4.8289,False,NM,0.0192242,225
mp-1111394,CsRb2IrF6,-2.467385547465517,0.070657167749999,2.3735,False,NM,0.0262243,225
mp-1111778,CsRb2LuCl6,-2.429132134132184,0.0759840965,4.452,False,NM,0.0057718,225
mp-1111457,CsRb2MoF6,-2.887734068465517,0.0,3.0636,True,FM,2.9994259,225
mp-1111043,CsRb2NbF6,-2.915322040465517,0.134387225749998,0.0,True,FM,2.0029203,225
mp-1111455,CsRb2PdF6,-2.412090709465516,0.08987794550000301,0.0,True,FM,0.999914499999999,225
mp-1111393,CsRb2RhF6,-2.557088107465516,0.017921141500001,2.2145,False,NM,0.001447299999999,225
mp-984761,CsRb2Sb,-0.37560738366379204,0.002607079166668,0.6525000000000001,False,NM,0.0,225
mp-1111777,CsRb2SbCl6,-1.844532827465517,0.07730727566666801,3.363,False,NM,0.0020116,225
mp-1111454,CsRb2SbF6,-2.798610963465517,0.08409871337499901,3.3907,False,NM,0.0,225
mp-1111776,CsRb2ScBr6,-2.036122084965517,0.08147636549999701,3.3122,False,NM,0.0001435,225
mp-1111707,CsRb2ScCl6,-2.365392163965517,0.057467360666673004,4.083,False,NM,0.0008518999999990001,225
mp-1111453,CsRb2ScF6,-3.484884353965517,0.064781072999992,5.8718,False,NM,0.0005844,225
mp-1111452,CsRb2TaF6,-2.86556561319885,0.263027500506666,0.0,True,FM,1.7810867,225
mp-1110815,CsRb2TbCl6,-2.422234976132183,0.079186753999998,4.4147,False,NM,0.0003515,225
mp-1111392,CsRb2TiF6,-3.222323495798851,0.038920492333327006,0.0,True,FM,1.0001377,225
mp-1111830,CsRb2TlBr6,-1.520958602798851,0.095035358499993,1.7076,False,NM,0.013496,225
mp-1111451,CsRb2TlF6,-2.628411509798851,0.055559482999996,3.6496,False,NM,0.0013815,225
mp-1110814,CsRb2TmCl6,-2.4289428404655182,0.079376530250006,4.4431,False,NM,0.005090799999999,225
mp-1111390,CsRb2VF6,-2.999623885465518,0.07486575825000301,0.0,True,FM,1.9997677,225
mp-1113330,CsRb2YBr6,-2.096308063465517,0.06993818933333401,3.7632,False,NM,0.0,225
mp-1113327,CsRb2YCl6,-2.418319629465517,0.082946380250004,4.422700000000001,False,NM,0.0002897,225
mp-1113328,CsRb2YF6,-3.480309745465517,0.057471259000001,5.4863,False,NM,0.0,225
mp-1185559,CsRb3,0.009642386961206001,0.009642386961206001,0.0,False,NM,1.3700000000000003e-05,225
mp-1009547,CsRbAs,-0.140662314885058,0.149074960115741,0.0,True,FM,1.0000054,216
mp-1183931,CsRbAu2,-0.279934621788791,0.007469657500003,0.7103,False,NM,0.0,225
mp-1228944,CsRbMnF6,-2.8998884116762462,0.005817341111111001,3.3815,True,FM,2.999946999999999,216
mp-1009541,CsRbN,0.646898569281608,0.71040757979885,0.0,True,FM,0.9998467,216
mp-1009544,CsRbP,-0.003294933932676,0.249071190316093,0.0,True,FM,1.0000074,216
mp-1184002,CsSr3,0.17554564551724203,0.17554564551724203,0.0,False,NM,0.013720399999999001,225
mp-1112177,CsTlBr3,-1.442000211597704,0.012241769749997002,0.998499999999999,False,NM,0.0,225
mp-1112176,CsTlCl3,-1.678370287597702,0.00036208099999900003,1.2584,False,NM,0.0,225
mp-1078203,CsTlF3,-2.419469716,0.0,2.1858,False,NM,0.0,225
mp-1112542,CsTlI3,-1.077440165597703,0.060254679749999006,0.0,False,NM,0.0013966999999990002,225
mp-1184012,CsYb3,0.783201151249997,0.783201151249997,0.0,True,FM,1.9963179,225
mp-30,Cu,0.0,0.0,0.0,False,NM,2e-07,225
mp-1079457,Cu(BrN3)2,2.257633216666666,2.481713856666666,0.0,True,FM,2.9944346,225
mp-1205922,Cu(IN3)2,2.437952364444444,2.6947000306481472,0.0,False,NM,0.0313933,225
mp-1184041,Cu(SnS2)4,-0.442010172115378,0.017261969711539,0.0,False,NM,0.0052692,216
mp-32857,Cu13Se8,-0.104366369642859,0.076480883333331,0.0,False,NM,0.0656595,216
mp-1096932,Cu2GeI6,0.23132108055555503,0.709673595648148,0.0,False,NM,0.0105629,225
mp-1225788,Cu2NiSb,0.14730699500000102,0.27441954500000004,0.0,False,NM,7.790000000000001e-05,225
mp-4367,Cu2NiSn,0.041598683750000004,0.16191667098214202,0.0,False,NM,2.2700000000000003e-05,225
mp-862256,Cu2PdAu,-0.11528439250000101,0.0,0.0,False,NM,1e-07,225
mp-12087,Cu2S,-0.11781005802083101,0.094264217708333,0.0,False,NM,0.0,225
mp-16366,Cu2Se,-0.025158175520833003,0.13308317083333202,0.0,False,NM,0.0,225
mp-22297,Cu2Se,-0.008857885520832,0.149383460833332,0.0,False,NM,0.0004638,216
mp-1246900,Cu3As,0.138871823749999,0.138871823749999,0.0,False,NM,0.000224,225
mp-1147673,Cu3O4,-0.7981339592857141,0.079719951607143,0.0,False,NM,0.0004389,225
mp-2002,Cu3Sb,0.16304618875000002,0.16304618875000002,0.0,False,NM,2.499999999999999e-06,225
mp-649627,Cu3SbS4,0.182484819843748,0.483118517499999,0.0,False,NM,0.2725673,225
mp-838,Cu3Sn,0.073573159999998,0.073573159999998,0.0,False,NM,1.54e-05,225
mp-1183970,Cu3W,0.44053180750000104,0.44053180750000104,0.0,False,NM,0.003359699999999,225
mp-1213530,Cu41Sn11,0.027442269134616,0.027442269134615,0.0,False,NM,0.2719126,216
mp-1147668,Cu6NiO6,-0.714042245384616,0.202269020384612,0.0,True,FM,1.167725,225
mp-22037,Cu6PbO8,-0.7822285919999991,0.25519325533333204,0.0,False,NM,0.0085317,225
mp-559633,Cu6PbO8,-1.037421847333332,0.0,0.0,False,NM,9.640000000000001e-05,225
mp-1147658,Cu6SnO8,-1.161771515666666,0.013960839333333001,0.0,True,FiM,0.0031985,225
mp-1147761,Cu8O7,-0.6707249323333321,0.21241210933333302,0.0,True,FM,1.5705171,225
mp-1225652,CuAgTe,0.07912192416666601,0.154785069166667,0.0,False,NM,0.0004567,216
mp-1245811,CuAs2,0.15145597999999902,0.15145597999999902,0.0,False,NM,5.5400000000000005e-05,225
mp-22913,CuBr,-0.517612222499999,0.0,0.48709999999999903,False,NM,0.0,216
mp-570354,CuBr,-0.3371445825,0.18046763999999801,0.20190000000000002,False,NM,0.0,225
mp-22914,CuCl,-0.48419320125000104,0.018326194999998,0.5646,False,NM,0.0,216
mp-571386,CuCl,-0.324469236249999,0.178050159999999,0.326099999999999,False,NM,0.0,225
mp-10634,CuF,-1.0199156775,0.34135678500000005,0.0,False,NM,0.0200218,216
mp-867917,CuGeRh2,-0.39096948999999903,0.0,0.0,False,NM,7e-07,225
mp-1096937,CuI,-0.104970957499999,0.23844701083333303,0.0,False,NM,0.00036399999999900005,225
mp-22895,CuI,-0.33633597749999905,0.0070819908333330005,1.176299999999999,False,NM,0.0,216
mp-631427,CuIrBr,1.000008725,1.345083539999998,0.0,False,NM,0.0686475,216
mp-1008922,CuN,0.8419680825000011,0.8419680825000011,0.0,False,NM,0.0023951,225
mp-13117,CuN,0.7959785775000011,0.7959785775000011,0.0,False,NM,0.0001634,216
mp-30069,CuNi2Sb,-0.07411526916666601,0.052997280833332,0.0,False,NM,1.62e-05,225
mp-30592,CuNi2Sn,-0.135795281249999,0.034833898541666006,0.0,False,NM,1.3300000000000001e-05,225
mp-14549,CuO,-0.771667562499999,0.17112737999999902,0.0,False,NM,0.00012859999999900002,225
mp-12608,CuPt7,-0.105695779999997,0.0,0.0,False,NM,3.91e-05,225
mp-631418,CuRe2Cl,1.20220839472222,1.459348469305553,0.0,False,NM,1.4200000000000001e-05,225
mp-1184104,CuRh2Pb,-0.034997475,0.033348483333334004,0.0,False,NM,1.3000000000000001e-05,225
mp-1023128,CuS,-0.152879446406249,0.124905971666665,0.0,False,NM,0.0021995,225
mp-760381,CuS,-0.267841336406249,0.009944081666665001,0.0,False,NM,2.499999999999999e-06,216
mp-867753,CuSbRh2,-0.29537934250000203,0.0,0.0,False,NM,0.0014219,225
mp-631422,CuSiBr,0.5012402783333331,1.051741965493054,0.0,False,NM,1.3600000000000002e-05,216
mp-978532,CuSiRh2,-0.567489621249997,0.0,0.0,False,NM,4e-07,225
mp-1184057,CuSnPd2,-0.38148450249999705,0.008409521874998,0.0,False,NM,7e-07,225
mp-30595,CuSnRh2,-0.348417891249998,0.0,0.0,False,NM,8.099999999999999e-06,225
mp-631463,CuTcBi,0.6814291816666671,0.6814291816666651,0.0,False,NM,0.003199699999999,216
mp-10750,Dy,0.021323329999997,0.021323329999997,0.0,False,NM,2.0600000000000003e-05,225
mp-1205189,Dy11Cd45,-0.197898382827378,0.0,0.0,False,NM,0.505197,216
mp-1184089,Dy2AgAu,-0.5903140237499951,0.010139592500003,0.0,False,NM,3.399999999999998e-06,225
mp-864981,Dy2AgIr,-0.605460821249996,0.019135924910715002,0.0,False,NM,0.001131799999999,225
mp-864977,Dy2AgOs,-0.274108186249996,0.028420607124999,0.0,False,NM,0.003261,225
mp-865161,Dy2AgRu,-0.352306718749997,0.0,0.0,False,NM,1.3e-06,225
mp-865159,Dy2AlZn,-0.42318652125000206,0.012720849374996,0.0,False,NM,8.69e-05,225
mp-864973,Dy2CdIn,-0.38843705499999803,0.0,0.0,False,NM,0.0013069,225
mp-864963,Dy2CuIr,-0.5949425783333301,0.018821488402776,0.0,False,NM,8.180000000000002e-05,225
mp-864959,Dy2CuOs,-0.31250953749999805,0.006527662607140001,0.0,False,NM,9e-07,225
mp-1184094,Dy2CuPt,-0.8292689349999941,0.039158765499969,0.0,False,NM,1.3300000000000001e-05,225
mp-864960,Dy2CuRh,-0.55877168833333,0.015834585089285,0.0,False,NM,0.0004032,225
mp-865220,Dy2CuRu,-0.333347355833331,0.0,0.0,False,NM,9e-07,225
mp-1184152,Dy2GaAg,-0.45524929812499704,0.017789646250001002,0.0,False,NM,2.6e-06,225
mp-1184170,Dy2InAg,-0.387366120416663,0.0,0.0,False,NM,1.23e-05,225
mp-984660,Dy2InHg,-0.582496736875,0.0032486925000010003,0.0,True,FM,0.5355196,225
mp-984104,Dy2IrAu,-0.834701708333328,0.011410145267859,0.0,False,NM,4.2e-06,225
mp-865221,Dy2IrPd,-0.9080338508333311,0.0,0.0,False,NM,2.1e-06,225
mp-864999,Dy2IrRh,-0.8725378233333301,0.0,0.0,False,NM,0.00020449999999900002,225
mp-865219,Dy2IrRu,-0.609520068333332,0.016699284598213,0.0,False,NM,0.0,225
mp-865006,Dy2MgAl,-0.25568068708333,0.0,0.0,False,NM,0.0,225
mp-1184111,Dy2MgCd,-0.168075144583331,0.008242707499999,0.0,False,NM,2.9800000000000003e-05,225
mp-1184078,Dy2MgGa,-0.32264315645833,0.037500251840277006,0.0,False,NM,0.006934999999999,225
mp-865007,Dy2MgIn,-0.298421086249998,0.0,0.0,False,NM,7.37e-05,225
mp-867349,Dy2MgTl,-0.214587415416664,0.014710298750004002,0.0,False,NM,0.0001043,225
mp-864886,Dy2NiIr,-0.64992929333333,0.025301895902771,0.0,False,NM,0.012771999999999001,225
mp-864917,Dy2NiRu,-0.38883434583332904,0.0024636642968750002,0.0,False,NM,0.000355699999999,225
mp-984534,Dy2OsPd,-0.603532545749999,0.041411439625001004,0.0,False,NM,4.9800000000000025e-05,225
mp-1184072,Dy2PdRh,-0.879749865833332,0.004430349999998,0.0,False,NM,2.8e-06,225
mp-865216,Dy2PdRu,-0.6453013658333311,0.0,0.0,False,NM,2.299999999999998e-06,225
mp-865222,Dy2RuRh,-0.6174674008333301,0.0,0.0,False,NM,1.54e-05,225
mp-866008,Dy2TlAg,-0.33241359958333305,0.0,0.0,False,NM,0.0382866,225
mp-866005,Dy2TlCd,-0.32317480666666604,0.0,0.0,False,NM,0.003017299999999,225
mp-1184105,Dy2TlHg,-0.519289754375002,0.0,0.0,True,FM,0.7234225,225
mp-1184139,Dy2TlIn,-0.518488357499997,0.0032452075,0.0,False,NM,9.4e-06,225
mp-1184062,Dy2TlZn,-0.410883863750001,0.034183022812502004,0.0,False,NM,0.0026527,225
mp-1184095,Dy2ZnAg,-0.319737936249998,0.012252259999998,0.0,False,NM,8.140000000000001e-05,225
mp-865156,Dy2ZnGa,-0.549740276250002,0.020627927031249,0.0,False,NM,0.0001052,225
mp-984627,Dy2ZnHg,-0.463977093125002,0.019809982499999,0.0,False,NM,0.0191864,225
mp-865157,Dy2ZnIn,-0.48903394124999905,0.026644959166645003,0.0,False,NM,0.00021099999999900002,225
mp-984544,Dy2ZnIr,-0.63316236083333,0.025593913958332003,0.0,False,NM,0.012335299999999001,225
mp-865004,Dy2ZnOs,-0.35201212150000305,0.030801713624999002,0.0,False,NM,0.0006855,225
mp-1184070,Dy2ZnPt,-0.7873374608333301,0.026896888124999,0.0,False,NM,3.4500000000000005e-05,225
mp-1184107,Dy2ZnRh,-0.5988679583333301,0.021729058839285,0.0,False,NM,0.0141772,225
mp-865017,Dy2ZnRu,-0.36363235333333205,0.0,0.0,False,NM,2.7000000000000002e-05,225
mp-1213204,Dy3(P3Pd10)2,-0.729265511477831,0.0,0.0,False,NM,1e-07,225
mp-1213109,Dy3(SbPd2)4,-0.8324013786666641,0.025813059000000003,0.0,False,NM,0.004068299999999,225
mp-1213199,Dy3(Si3Pd10)2,-0.8314819377586231,0.0,0.0,False,NM,0.0,225
mp-1213597,Dy3Cu20Sb11,-0.23140137014705803,0.033546110294119004,0.0,False,NM,0.109365899999999,216
mp-1200984,Dy3Si11Pt23,-0.866033013378377,0.0,0.0,False,NM,0.3015386,225
mp-1184098,Dy3V,0.321588954999995,0.321588954999995,0.0,True,FiM,3.5600139,225
mp-571376,Dy4CdCo,-0.23053100569444002,0.0,0.0,False,NM,2.92e-05,216
mp-1212892,Dy4CdIr,-0.512054960694436,0.0,0.0,False,NM,0.0046086,216
mp-1212922,Dy4CdNi,-0.28151262069444,0.0,0.036799999999999,False,NM,6e-07,216
mp-1212939,Dy4CdPd,-0.43480707986110606,0.0,0.0,False,NM,2.4e-06,216
mp-1212919,Dy4CdPt,-0.590851875277776,0.0,0.025799999999999,False,NM,0.0,216
mp-570768,Dy4CdRh,-0.47711481236110703,0.0,0.0,False,NM,0.0975443,216
mp-1213425,Dy4InIr,-0.5739447922222151,0.0,0.0,False,NM,0.0005228,216
mp-571230,Dy4InRh,-0.541577346388884,0.0,0.0,False,NM,1.23e-05,216
mp-1212913,Dy4MgCo,-0.13309087152777202,0.0,0.0,True,FiM,1.4269068,216
mp-1212923,Dy4MgIr,-0.418638120694442,0.0,0.0,False,NM,8.2e-06,216
mp-1212902,Dy4MgNi,-0.187413376527776,0.0,0.012600000000000002,False,NM,0.001242,216
mp-571208,Dy4MgRh,-0.384446385694439,0.0,0.0,False,NM,0.0001869,216
mp-1212975,Dy4MgRu,-0.23277002361110402,0.0,0.0,False,NM,3e-07,216
mp-1226406,Dy5(Sn3Os)6,-0.29310047511494003,0.020350770517242,0.0,False,NM,0.0013028,216
mp-1225803,Dy5(Sn3Rh)6,-0.5369711813218371,0.021390977659643002,0.0,False,NM,0.077683599999999,216
mp-1194170,Dy6Al7Cu16,-0.366140972413792,0.0,0.0,False,NM,0.3747876,225
mp-1194041,Dy6Cu23,-0.197867905172411,0.022678477241379003,0.0,False,NM,2e-07,225
mp-1194186,Dy6Fe23,-0.043693634482757,0.011277501034482001,0.0,True,FiM,51.8253698,225
mp-1192635,Dy6Mn23,-0.028138420724832,0.026333567729885002,0.0,True,FiM,14.2904606,225
mp-1193674,Dy6Zn23,-0.352097433275863,0.014777620431035001,0.0,False,NM,1e-07,225
mp-867898,DyAgHg2,-0.329545077083334,0.0,0.0,False,NM,4e-07,225
mp-862263,DyAlAg2,-0.327052793749999,0.0008842100277770001,0.0,False,NM,2e-07,225
mp-2627,DyAs,-1.8105794087500011,0.0,0.0,False,NM,0.0,225
mp-1103476,DyB12,-0.265182011923076,0.0,0.0,False,NM,1e-07,225
mp-22907,DyBi,-1.074468570000007,0.0,0.0,False,NM,1e-07,225
mp-1009543,DyBiPd,-1.049426923333338,0.0,0.0,False,NM,1e-07,216
mp-30453,DyBiPt,-1.183137906666663,0.0,0.0,False,NM,6e-07,216
mp-867256,DyCdAg2,-0.268829113749997,0.0,0.0,False,NM,5.1900000000000015e-05,225
mp-867827,DyCdAu2,-0.660763370416662,0.0,0.0,False,NM,1e-07,225
mp-864884,DyCdHg2,-0.35179989166666803,0.0,0.0,False,NM,1e-07,225
mp-1071811,DyCdNi4,-0.34708435861110803,0.0,0.0,True,FiM,0.7252059,216
mp-867276,DyCdPd2,-0.724428725416665,0.0,0.0,False,NM,1e-07,225
mp-1183773,DyCdPt2,-0.8120568879166631,0.017505361000004,0.0,False,NM,9.3e-06,225
mp-867900,DyCdRh2,-0.555099917916664,0.000841602499998,0.0,False,NM,8.4e-06,225
mp-1072033,DyCu4Ag,-0.23427210222222103,0.0,0.0,False,NM,2.32e-05,216
mp-1206430,DyCu4Pd,-0.37359270583333404,0.0,0.0,False,NM,1.15e-05,216
mp-30578,DyCu5,-0.18447929916666703,0.01920873,0.0,False,NM,0.0,216
mp-1183800,DyErAg2,-0.326064001249998,0.0060732125,0.0,False,NM,1.5100000000000001e-05,225
mp-1183795,DyErAl2,-0.45369155802083205,0.021912060937502,0.0,False,NM,0.0005197,225
mp-1225265,DyErAl4,-0.5792785030555551,0.00105743125,0.0,False,NM,5.5e-06,216
mp-1183828,DyErCd2,-0.29040231791666204,0.0057783225000010005,0.0,False,NM,9e-06,225
mp-1183862,DyErCu2,-0.268940989583335,0.006264557499999,0.0,False,NM,6e-06,225
mp-1225587,DyErMn4,0.038072890344823,0.12561710444444002,0.0,True,FiM,3.9130096,216
mp-1183794,DyErRh2,-0.9032437479166651,0.009445557499999,0.0,False,NM,0.0006085,225
mp-1183783,DyErRu2,-0.35252614791666603,0.007821692124997,0.0,False,NM,5.1100000000000016e-05,225
mp-1183804,DyErTl2,-0.317436559583336,0.0,0.0,False,NM,0.0004482,225
mp-1183842,DyErZn2,-0.38462400708333105,0.0068357900000000004,0.0,False,NM,0.057798199999999,225
mp-862666,DyGaRh2,-0.814781299791663,0.0,0.0,False,NM,2.6e-06,225
mp-24151,DyH2,-0.801221917499998,0.0,0.0,False,NM,9.3e-06,225
mp-1225500,DyHoAl4,-0.583943896666667,0.000577793888899,0.0,False,NM,1.1e-06,216
mp-1183820,DyHoHg2,-0.581035958749999,0.0,0.0,False,NM,3.7e-06,225
mp-984767,DyHoIn2,-0.44030456249999606,0.0,0.0,False,NM,1.3400000000000002e-05,225
mp-984768,DyHoIr2,-0.8447974666666621,0.001808007767859,0.0,True,FM,0.2367287,225
mp-862692,DyHoMg2,-0.052797641666664,0.0020897649999990003,0.0,False,NM,0.0002048,225
mp-1225530,DyHoMn4,0.086606903678159,0.136303762222222,0.0,True,FiM,4.4417109,216
mp-1183786,DyHoRu2,-0.33342050916666205,0.01151195090625,0.0,False,NM,5.1e-05,225
mp-1183780,DyHoTl2,-0.43675946750000305,0.002528027499998,0.0,False,NM,0.0001247,225
mp-1183799,DyHoZn2,-0.34014927916666304,0.0017645224999980002,0.0,False,NM,0.0051375,225
mp-20898,DyInAg2,-0.35890147791666505,0.0,0.0,False,NM,3.2e-06,225
mp-30374,DyInAu2,-0.7004257995833301,0.0,0.0,False,NM,7.499999999999998e-06,225
mp-1024940,DyInCo4,-0.119136036388887,0.046578643039215,0.0,True,FiM,4.4493178,216
mp-22680,DyInCu2,-0.37791175875000205,0.032599943055554005,0.0,False,NM,4.8e-06,225
mp-1080384,DyInCu4,-0.316629750833335,0.0,0.0,False,NM,3.1e-06,216
mp-30606,DyInPd2,-0.8824236862500001,0.0,0.0,False,NM,2e-07,225
mp-1025113,DyInPt4,-0.9035773890833521,0.03356635,0.0,False,NM,0.0003024,216
mp-861892,DyInRh2,-0.7474745770833301,0.0,0.0,False,NM,3e-07,225
mp-1183791,DyLuAg2,-0.330061112916664,0.0,0.0,False,NM,9.550000000000003e-05,225
mp-1183826,DyLuCd2,-0.285665132083329,0.003907237500001001,0.0,False,NM,7.699999999999999e-06,225
mp-1183810,DyLuCu2,-0.28545412541666604,0.0,0.0,False,NM,0.0009159,225
mp-1183792,DyLuHg2,-0.5662937691666691,0.0,0.0,False,NM,5.7e-06,225
mp-1183806,DyLuIn2,-0.546998670416666,0.014436091018499,0.0,False,NM,2.34e-05,225
mp-1183808,DyLuIr2,-0.9026783645833311,0.010368025267858001,0.0,False,NM,0.1798736,225
mp-866295,DyLuMg2,-0.043063612083330004,0.0016739900000020001,0.0,False,NM,3e-07,225
mp-1183831,DyLuRh2,-0.939634862083333,0.014202254999998,0.0,False,NM,3.6700000000000004e-05,225
mp-1183818,DyLuRu2,-0.390451564583332,0.010865141796875,0.0,False,NM,0.00017099999999900002,225
mp-1183789,DyLuTl2,-0.28622114875000204,0.000284762499997,0.0,False,NM,0.0001512,225
mp-1183798,DyLuZn2,-0.39541245291666605,0.003563174999996,0.0,False,NM,0.0009333,225
mp-1183781,DyMg2Sc,-0.035595971666664006,0.009496614375,0.0,False,NM,0.0002876,225
mp-1546,DyMg3,-0.048998716666664006,0.0,0.0,False,NM,5.099999999999999e-06,225
mp-862680,DyMgAg2,-0.29813370249999704,0.0,0.0,False,NM,7.0999999999999955e-06,225
mp-867762,DyMgAu2,-0.771047359166663,0.0,0.0,False,NM,1.93e-05,225
mp-867773,DyMgCd2,-0.277625719166664,0.0,0.0,False,NM,1.1e-06,225
mp-867826,DyMgHg2,-0.444099090416665,0.0,0.0,False,NM,2e-06,225
mp-867831,DyMgRh2,-0.7065420116666641,0.0,0.0,False,NM,2.8e-06,225
mp-866007,DyMgTl2,-0.191325248333335,0.038983076944445,0.0,False,NM,0.0011994,225
mp-865142,DyMgZn2,-0.335331704166665,0.0,0.0,False,NM,5.799999999999999e-06,225
mp-1410,DyN,-2.020705376875,0.0,0.043099999999999,False,NM,0.0,225
mp-866126,DyNbRu2,-0.29099031541666703,0.0,0.0,False,NM,1e-07,225
mp-1077279,DyNi4Au,-0.38688771861111004,0.0,0.0,True,FM,0.203080999999999,216
mp-30452,DyNiBi,-0.668153847222222,0.0,0.20840000000000003,False,NM,0.0,216
mp-4510,DyNiSb,-0.964084313888886,0.0,0.3123,False,NM,0.0,216
mp-1183816,DyNpRu2,-0.19306436510416503,0.048913754687500005,0.0,True,FiM,2.8537681,225
mp-2014,DyP,-1.856365871488094,0.0,0.0,False,NM,5e-07,225
mp-867279,DyPaRu2,-0.39095390291666704,0.0,0.0,False,NM,0.00043329999999900006,225
mp-867278,DyPaTc2,-0.16986982625000002,0.042047138749985,0.0,False,NM,7.4e-06,225
mp-11242,DyPbAu,-0.674255037222226,0.0,0.0,False,NM,0.0,216
mp-1206592,DyPd2Pb,-0.699516410416663,0.017371967500000002,0.0,False,NM,1.04e-05,225
mp-1183779,DyRh2Pb,-0.554437200416664,0.001504319999998,0.0,True,FM,0.886608899999999,225
mp-2470,DyS,-2.247902868906248,0.0,0.0,False,NM,1.4e-06,225
mp-1007,DySb,-1.214562465833331,0.0,0.0,False,NM,1e-07,225
mp-1225491,DySbPd,-1.120842200555551,0.0,0.22989999999999902,False,NM,0.0,216
mp-16327,DySbPt,-1.214195870555552,0.0,0.049299999999999004,False,NM,0.0,216
mp-1184063,DySbRh2,-0.7187644579166641,0.10551457499999801,0.0,False,NM,0.0029915,225
mp-1184087,DyScRu2,-0.41532878916666505,0.023295404296874003,0.0,False,NM,0.0007771999999990001,225
mp-1184079,DyScZn2,-0.34954627916666503,0.011683419999998002,0.0,False,NM,0.000217,225