material_id,formula,formation_energy,ehull,band_gap,is_magnetic,magnetic_ordering,total_magnetization,spacegroup
mp-861508,Pr2ZnIr,-0.43748412083333305,0.060553802767857004,0.0,False,NM,0.0001994,225
mp-861506,Pr2ZnRu,-0.185227715833333,0.04674468187499901,0.0,False,NM,5.4600000000000006e-05,225
mp-1209430,Pr3(P3Pd10)2,-0.6911855104433551,0.0,0.0,False,NM,1e-06,225
mp-1209429,Pr3(Si3Pd10)2,-0.792835862241382,0.0,0.0,False,NM,3e-07,225
mp-556938,Pr30Ti24Se58I8O25,-2.345480533040947,0.0,0.1791,True,FM,10.8387608,225
mp-1186703,Pr3Cr,0.38299392874999605,0.38299392874999605,0.0,True,FiM,2.669652799999999,225
mp-1209943,Pr3Cr10N11,-0.870471416666667,0.11681418874999801,0.054899999999999005,False,NM,0.0718589,225
mp-1198014,Pr3Si11Pt23,-0.8846735908108101,0.0,0.0,False,NM,0.5864587,225
mp-1209709,Pr4CdIr,-0.409931972361109,0.0,0.0,False,NM,4e-07,216
mp-1209942,Pr4CdNi,-0.21356926402777301,0.0,0.017400000000000002,False,NM,0.0317522,216
mp-1209682,Pr4CdPd,-0.369639610694442,0.0,0.056400000000000006,False,NM,0.0048184,216
mp-1209686,Pr4CdPt,-0.5052381527777741,0.0,0.0,False,NM,0.000536,216
mp-645130,Pr4MgCo,-0.063820499861111,0.0,0.0,False,NM,0.0119914,216
mp-1209720,Pr4MgIr,-0.332887443194443,0.0,0.0,False,NM,1.5e-06,216
mp-1209708,Pr4MgNi,-0.13344215444444502,0.0024008599206330004,0.0,False,NM,0.0002969,216
mp-1209444,Pr4MgRh,-0.312395527777777,0.0,0.0,False,NM,2.6000000000000002e-05,216
mp-605873,Pr4MgRu,-0.152073027777779,0.0,0.0,False,NM,1.5300000000000003e-05,216
mp-1219856,Pr5S8,-2.052175130328521,0.23266078504807902,0.0,False,NM,0.9998602,216
mp-1192470,Pr6Mg23C,-0.072072391666666,0.007760069666666001,0.0,False,NM,0.6456263,225
mp-1194037,Pr6Mn23,0.226569227847805,0.2265692278478,0.0,True,FiM,34.2214775,225
mp-1186739,PrAgAu2,-0.5549010508333351,0.012467470833323,0.0,False,NM,2e-07,225
mp-861988,PrAgHg2,-0.35452353958333904,0.0,0.0,False,NM,4e-07,225
mp-10622,PrAs,-1.760069192083332,0.0,0.0,False,NM,7e-07,225
mp-1004753,PrB12,-0.22518390551282003,0.06963110730769001,0.0,False,NM,0.000629,225
mp-23171,PrBi,-1.182174148333331,0.0,0.0,False,NM,6e-07,225
mp-862761,PrBiAu2,-0.609635062916666,0.047284541768024005,0.0,False,NM,0.00016319999999900002,225
mp-1206720,PrBiPd,-0.935451583888889,0.0,0.0,False,NM,0.0,216
mp-976884,PrBiPd2,-0.6926631279166661,0.081312003749999,0.0,False,NM,0.0005664,225
mp-862755,PrCd3,-0.346884070416663,0.0023430399456530002,0.0,False,NM,1.4e-06,225
mp-862760,PrCdAg2,-0.259733593749997,0.0,0.0,False,NM,1.1100000000000002e-05,225
mp-867176,PrCdAu2,-0.627538850416668,0.0,0.0,False,NM,4.9500000000000004e-05,225
mp-867177,PrCdHg2,-0.47901372666666403,0.0,0.0,False,NM,1.2e-06,225
mp-1077088,PrCdNi4,-0.25332949861110804,0.0,0.0,True,FiM,0.829607499999999,216
mp-1219953,PrDyAl4,-0.548622054444445,0.013485025833331001,0.0,False,NM,1.98e-05,216
mp-1186570,PrDyIn2,-0.597281921666667,0.010720700000003,0.0,False,NM,8.7e-06,225
mp-862757,PrDyMg2,-0.075159143333331,0.0,0.0,False,NM,4.5900000000000004e-05,225
mp-976142,PrDyTl2,-0.468701494166666,0.008574101000029,0.0,False,NM,6.410000000000001e-05,225
mp-976143,PrDyZn2,-0.31178582583333203,0.008168232499999002,0.0,False,NM,0.0013964,225
mp-976159,PrErIn2,-0.575244141249999,0.014126853750003,0.0,False,NM,0.0006971,225
mp-976151,PrErMg2,-0.07227551041666501,0.000244582499999,0.0,False,NM,4.47e-05,225
mp-976182,PrErTl2,-0.34162950208333304,0.0010152450000040002,0.0,False,NM,4e-07,225
mp-976129,PrErZn2,-0.313637030416666,0.012999425,0.0,False,NM,0.0065095,225
mp-1516366,PrEu2NbO6,-3.183736387166668,0.20449274701666903,0.46330000000000005,True,FM,13.9999997,225
mp-1517181,PrEu2SbO6,-2.850241578166667,0.28145854240001,0.33729999999999905,True,FM,13.9999997,225
mp-1186519,PrEuAg2,-0.26467344999999903,0.001910860625001,0.0,True,FM,7.3258992,225
mp-1519673,PrEuDySiO6,-3.434746769833333,0.196986142718751,0.06380000000000001,True,FM,6.9999999,216
mp-1516991,PrEuHfCrO6,-3.326086217666666,0.09457495574999901,0.034399999999999,True,FM,10.0000016,216
mp-1520817,PrEuHfFeO6,-3.146332466666667,0.150703712062492,0.0,True,FM,11.8786709,216
mp-1522235,PrEuHfMnO6,-3.194883035459771,0.211184961687497,0.0,True,FM,10.9999986,216
mp-1520808,PrEuHfVO6,-3.324963372666666,0.136151589250001,0.0,True,FM,8.9999996,216
mp-1186762,PrEuHg2,-0.5813367529166691,0.0,0.0,True,FM,7.1993443,225
mp-1520922,PrEuMnNbO6,-2.98178562545977,0.18457707860344402,0.10950000000000001,True,FM,12.0000129,216
mp-1517197,PrEuMnSbO6,-2.62261041845977,0.20072567335001001,0.0,True,FM,12.0000012,216
mp-1518265,PrEuMnWO6,-2.59667588745977,0.257990987041674,0.0,True,FM,13.0,216
mp-1517625,PrEuNbCrO6,-2.997073832666666,0.16689396586110603,0.0,True,FiM,9.0000004,216
mp-1523150,PrEuNbFeO6,-2.857744084666667,0.25351358150000003,0.0,True,FiM,11.0093092,216
mp-1516611,PrEuNbVO6,-3.071161479666668,0.115622021930549,0.0,True,FiM,4.0001065,216
mp-1186785,PrEuZn2,-0.273450344166668,0.0049037525000000005,0.0,True,FM,7.1663338,225
mp-1519575,PrEuZrCrO6,-3.233817756666666,0.147105797000008,0.021899999999999,True,FM,9.9999268,216
mp-1521598,PrEuZrFeO6,-3.046496074666668,0.21727678724999802,0.0,True,FM,11.8698402,216
mp-1522055,PrEuZrMnO6,-3.098142623459771,0.275840314249995,0.0,True,FM,11.0,216
mp-1518026,PrEuZrVO6,-3.231142237666668,0.19023510450000802,0.0,True,FM,9.0055998,216
mp-976125,PrGaAu2,-0.597683749791666,0.083697661663041,0.0,False,NM,0.0008581,225
mp-1220015,PrGdAl4,-0.543905016944442,0.010601984166665001,0.0,True,FM,7.7971499,216
mp-24095,PrH2,-0.7171147630555551,0.0,0.0,False,NM,5.9e-06,225
mp-1219911,PrHoAl4,-0.542489169444444,0.016825847499999002,0.0,False,NM,1.0800000000000002e-05,216
mp-1186749,PrHoIn2,-0.45048959249999704,0.0,0.0,False,NM,4.0700000000000014e-05,225
mp-976030,PrHoMg2,-0.07136018916666301,0.001159903750002,0.0,False,NM,6.9e-06,225
mp-1186751,PrHoTl2,-0.45764241916666704,0.017190810750015002,0.0,False,NM,7.2e-06,225
mp-976032,PrHoZn2,-0.310093874166664,0.010880085000000001,0.0,False,NM,0.0026644,225
mp-569673,PrI2,-1.567806443055554,0.0,0.0,True,FM,1.797113599999999,216
mp-570683,PrInAg2,-0.35108754541666504,0.0,0.0,False,NM,2e-06,225
mp-570611,PrInAu2,-0.6701467695833301,0.0,0.0,False,NM,1.2e-06,225
mp-21148,PrInCu2,-0.32874349751040505,0.023684857656252,0.0,False,NM,0.0003001,225
mp-1186750,PrInPd2,-0.6989085070833301,0.019505844621215,0.0,False,NM,5.5e-06,225
mp-1077228,PrInPt4,-0.7781562580555581,0.0,0.0,False,NM,0.0,216
mp-975932,PrLuIn2,-0.5480193870833321,0.030429283874990002,0.0,False,NM,3.3e-05,225
mp-975972,PrLuMg2,-0.063278377083333,0.009241715833331,0.0,False,NM,1.77e-05,225
mp-1519506,PrMg(BiO3)2,-1.663745471666667,0.746745622968757,0.0,False,NM,0.999999899999999,225
mp-11234,PrMg2Ag,-0.101571408333332,0.089976424722221,0.0,False,NM,2.85e-05,225
mp-428,PrMg3,-0.09979057666666401,0.0,0.0,False,NM,1e-07,225
mp-975892,PrMgAg2,-0.27457584749999603,0.0,0.0,False,NM,5.17e-05,225
mp-975893,PrMgAu2,-0.709627366666667,0.0,0.0,False,NM,1.699999999999999e-06,225
mp-867178,PrMgCd2,-0.30411599166666503,0.0,0.0,False,NM,1.3300000000000001e-05,225
mp-862758,PrMgHg2,-0.45515687791666903,0.0,0.0,False,NM,0.0,225
mp-13436,PrMgNi4,-0.30007284111110905,0.0,0.0,True,FiM,0.6911335,216
mp-975914,PrMgTl2,-0.239848490833336,0.050013337291666,0.0,False,NM,0.004349299999999,225
mp-862759,PrMgZn2,-0.32945275166666604,0.0,0.0,False,NM,1.25e-05,225
mp-1009639,PrN,-1.426866345208331,0.118927479999999,1.5598,False,NM,6.7e-05,216
mp-343,PrN,-1.5457938252083312,0.0,0.0,False,NM,0.0,225
mp-1219707,PrNdAl4,-0.547401993194443,0.000358498333334,0.0,False,NM,0.0016940999999990002,216
mp-975883,PrNdHg2,-0.554989438541667,0.0,0.0,True,FM,0.893249899999999,225
mp-1186832,PrNdIn2,-0.6193329847916651,0.004071032499997,0.0,False,NM,8.720000000000003e-05,225
mp-1186466,PrNdIr2,-0.622858663912204,0.11054750898214301,0.0,False,NM,0.0001109,225
mp-975848,PrNdMg2,-0.08695856479166501,0.005184279999999,0.0,False,NM,3.9900000000000014e-05,225
mp-975896,PrNdTl2,-0.38693138395833804,0.0,0.0,False,NM,0.0005769,225
mp-975822,PrNdZn2,-0.30917252229166503,0.0,0.0,False,NM,8e-06,225
mp-1206667,PrNiBi,-0.637748460555554,0.0,0.33379999999999904,False,NM,0.0,216
mp-11344,PrO,-3.039014093333332,0.06871121451388701,0.0,False,NM,0.0,225
mp-1302,PrO2,-3.020819083888888,0.086906223958331,0.0,True,FM,0.998968899999999,225
mp-36033,PrOF,-4.072142553888889,0.05349302000000201,5.163699999999999,False,NM,0.0015500000000000002,216
mp-601,PrP,-1.742946234821428,0.0,0.0,False,NM,4e-07,225
mp-1186469,PrPbAu2,-0.6085797379166641,0.0,0.0,False,NM,4e-07,225
mp-2495,PrS,-2.28349878723958,0.0,0.0,False,NM,3e-07,225
mp-1785,PrSb,-1.42819474583333,0.0,0.0,False,NM,1e-07,225
mp-1674,PrSe,-2.105255975364581,0.0,0.0,False,NM,1.0500000000000001e-05,225
mp-1219727,PrSmFe4,0.07352861888888801,0.07352861888888801,0.0,True,FiM,7.7831182,216
mp-1186510,PrSmIn2,-0.6160248154166651,0.0054075275,0.0,False,NM,2.0600000000000003e-05,225
mp-1186465,PrSmIr2,-0.663839941934519,0.090227006017862,0.0,False,NM,1.7400000000000003e-05,225
mp-975880,PrSmMg2,-0.08087543916666601,0.006634232500000001,0.0,False,NM,5.43e-05,225
mp-975920,PrSmTl2,-0.380325185833335,0.0005436825000020001,0.0,False,NM,0.0002049,225
mp-975886,PrSmZn2,-0.312601976666667,0.0017645074999990001,0.0,False,NM,9.710000000000003e-05,225
mp-862805,PrSnAu2,-0.6842041816666631,0.0,0.0,False,NM,1.4e-06,225
mp-2532,PrTe,-1.673009335833331,0.0,0.0,False,NM,1.5000000000000002e-05,225
mp-975801,PrTlAg2,-0.24449823708333301,0.031586428529411,0.0,False,NM,0.0003626,225
mp-975789,PrTmMg2,-0.06711258541666701,0.005407507499997,0.0,False,NM,5.4600000000000006e-05,225
mp-975793,PrTmTl2,-0.43541068041666603,0.034001103250027004,0.0,False,NM,9.960000000000005e-05,225
mp-975787,PrW3,0.765199173749998,0.765199173749998,0.0,False,NM,0.0168325,225
mp-1219708,PrYAl4,-0.5471360069444431,0.012988300833333001,0.0,False,NM,4.6600000000000015e-05,216
mp-1219772,PrYCo4,-0.021514136944444002,0.066372268448717,0.0,False,NM,0.037948699999999,216
mp-1219699,PrYFe4,0.042774526388889005,0.077268142222221,0.0,True,FiM,7.7427196,216
mp-1186929,PrYIn2,0.025905547083336002,0.6368378925,0.0,False,NM,0.0087811,225
mp-861479,PrYMg2,-0.084039455416666,0.0,0.0,False,NM,6.0100000000000004e-05,225
mp-1219717,PrYMg4,-0.064325633611109,0.026993911666666003,0.0,False,NM,8.599999999999999e-06,216
mp-1219745,PrYNi4,-0.333741903611109,0.017749282777774003,0.0,False,NM,0.0007363,216
mp-982017,PrYTl2,-0.478961765416663,0.010007444500025001,0.0,False,NM,8.67e-05,225
mp-975769,PrYZn2,-0.314635037916666,0.007606392500000001,0.0,False,NM,0.0342486,225
mp-1518374,PrZn(BiO3)2,-1.463645650166667,0.697363432968756,0.0,False,NM,0.863931,225
mp-126,Pt,0.0,0.0,0.0,False,NM,0.005050000000000001,225
mp-1095163,Pt(Cl3O)2,0.644797292222222,1.14273606587963,0.0,False,NM,0.0736438,225
mp-1078594,Pt(I3N)2,0.8600949733333331,1.173513937361111,0.0,True,FM,6.1677843,225
mp-726178,Pt(NCl3)2,0.8176645637037011,1.041183337685185,0.0,True,FiM,4.0061734,225
mp-723704,Pt(NF3)2,-0.012831333333333,1.120511545833336,0.0,True,FiM,4.0023181,225
mp-1186783,Pt3Cl,0.59042073208333,0.7685697358333311,0.0,False,NM,0.5304359,225
mp-1100763,Pt3F,0.091649634687506,0.5213663996875011,0.0,False,NM,0.203361,225
mp-1018164,PtC,0.9112256662500001,0.9112256662500001,0.0,False,NM,0.0029284,216
mp-1018165,PtC,1.4822802012499992,1.4822802012499992,0.0,False,NM,0.000529,225
mp-1189040,PtC8(NCl3)2,2.1917024334558812,2.346589617162989,0.044699999999999004,False,NM,0.0002547,225
mp-13174,PtN,0.9567553125000001,0.9567553125000001,0.0,False,NM,0.0047223,216
mp-13175,PtN,1.2044023075,1.2044023075,0.0,False,NM,0.0148569,225
mp-11540,PtO,0.2059892925,0.9294241862499981,0.0,False,NM,0.0006556,225
mp-114,Pu,0.277217059999998,0.277217059999998,0.0,True,FM,5.7227855,225
mp-861929,Pu2BiAu,-0.605360265625009,0.04669598718750401,0.0,True,FiM,11.9999998,225
mp-861744,Pu2HgBi,-0.452249675000004,0.08998835927083301,0.0,True,FM,12.8754019,225
mp-1186804,Pu2HgGe,-0.46798223374999903,0.0,0.0,True,FM,11.9422059,225
mp-867325,Pu2HgSb,-0.217865397499995,0.08299278510416201,0.0,True,FM,12.9591389,225
mp-21152,Pu2Mg,0.69228355333332,0.692283553333332,0.0,True,FM,13.3985315,225
mp-1186791,Pu2SbAu,-0.313057614374992,0.07131870968749701,0.0,True,FM,12.0447778,225
mp-1186793,Pu2SnHg,-0.46649506625000403,0.021131663333342002,0.0,True,FiM,12.0131348,225
mp-978096,Pu3Au,0.537350439270824,0.7249690387500031,0.0,True,FM,4.4756018,225
mp-975554,Pu3Sc,0.181803791250004,0.181803791250004,0.0,True,FiM,5.6022415,225
mp-1186802,PuAg3,0.08222843,0.08222843,0.0,True,FM,5.5375832,225
mp-1186806,PuAgAu2,0.064517496874998,0.43975469583333604,0.0,True,FM,0.1118216,225
mp-2548,PuAs,-1.461516305625004,0.0,0.0,True,FM,5.0001238,225
mp-1186664,PuAu3,-0.075905547187502,0.486950251249999,0.0,True,FM,0.2752041,225
mp-2765,PuB,0.44447106703125105,0.8177980396875021,0.0,True,FM,5.0944544,225
mp-1104892,PuB12,-0.291514150673077,0.0,0.0,True,FM,4.4623935,225
mp-22879,PuBi,-0.739028276875004,0.0,0.0,True,FiM,5.0424456,225
mp-861726,PuBiPd2,0.16996308281250302,0.5303323711111081,0.0,True,FM,0.165008799999999,225
mp-280,PuC,-0.12007217333332601,0.11719694666666601,0.0,True,FiM,4.1807335,225
mp-862859,PuCdAu2,-0.5187628346875001,0.0,0.0,True,FM,5.6216083,225
mp-1186660,PuCdHg2,-0.27701961343750203,0.0,0.0,True,FM,5.6175132,225
mp-862738,PuCdRh2,0.17690016031250402,0.427941923750001,0.0,False,NM,0.0055111,225
mp-24720,PuH2,-0.6058255287499981,0.0,0.0,True,FM,5.6438258999999995,225
mp-1186792,PuHg3,-0.23340114281249602,0.0,0.0,True,FM,5.6793872,225
mp-862739,PuHgAu2,0.016827809270822003,0.46986538916666304,0.0,True,FM,0.3156776,225
mp-1188083,PuInAu2,-0.565058152187496,0.0,0.0,True,FM,5.3074836,225
mp-1186931,PuInHg2,-0.297386043437505,0.000381315833337,0.0,True,FM,5.5559932,225
mp-1186808,PuMg3,0.1255547025,0.1255547025,0.0,True,FM,5.6778957,225
mp-1719,PuN,-1.6748510637499971,0.0,0.0,True,FiM,4.8708401,225
mp-1186824,PuNp3,0.45903985343748804,0.45903985343748804,0.0,True,FM,0.308498899999999,225
mp-806,PuO,-2.566606411874994,0.18760444020833503,0.0,True,FM,5.5827223,225
mp-1959,PuO2,-3.493067072916661,0.0,0.0,True,FM,3.999999899999999,225
mp-35612,PuOF,-3.498975999583327,0.09438092833334101,0.0,True,FM,5.0008461,216
mp-926,PuP,-1.541022508363092,0.0,0.0,True,FM,4.9835392,225
mp-1186795,PuPbAu2,-0.22374363968749403,0.0,0.0,True,FM,5.5399981,225
mp-1080388,PuPt5,-0.34186701145832604,0.09909516333333601,0.0,True,FiM,4.2219901,216
mp-2086,PuS,-1.7905322431249941,0.0,0.0,True,FM,5.7934373,225
mp-2566,PuSb,-0.497418129374995,0.004904169749993001,0.0,True,FM,5.006479,225
mp-861728,PuSbPd2,0.044109987812504005,0.5511766809999971,0.0,True,FM,0.222609,225
mp-2288,PuSe,-1.923234833906249,0.0,0.0,True,FM,5.8194854,225
mp-861599,PuSnAu2,-0.5613286821875001,0.0,0.0,True,FM,5.3982407,225
mp-1556,PuTe,-1.103204677708326,0.0,0.0,True,FM,5.8751773,225
mp-1186805,PuZnAu2,-0.22170171218748802,0.0,0.0,True,FM,5.4864213,225
mp-12628,Rb,0.015341202500000001,0.015341202500000001,0.0,False,NM,0.0153581,225
mp-1111735,Rb2AgAsBr6,-1.289603306416666,0.000632197750001,1.0799,False,NM,0.0002316,225
mp-1111655,Rb2AgAsCl6,-1.535834353416666,0.0,1.2354,False,NM,0.000136499999999,225
mp-1110613,Rb2AgAsF6,-2.429388063416666,0.047515893833335,2.326699999999999,False,NM,0.0007798999999990001,225
mp-1111734,Rb2AgAuBr6,-1.175396540666665,0.035179272625001,0.0,False,NM,0.0005811999999990001,225
mp-1111469,Rb2AgAuCl6,-1.374417813666666,0.030118324124999003,0.0,False,NM,0.0022129,225
mp-1110612,Rb2AgAuF6,-2.029013695666666,0.055373330833333005,0.0,False,NM,0.004419,225
mp-1110811,Rb2AgBiBr6,-1.413070619666666,0.030073661374996,1.581999999999999,False,NM,0.0014391,225
mp-1110810,Rb2AgBiCl6,-1.665001007666667,0.0,2.06,False,NM,0.0,225
mp-1110790,Rb2AgBiF6,-2.542093180666666,0.016627252500004002,2.5561,False,NM,0.0007456,225
mp-1110821,Rb2AgBiI6,-1.038919942666666,0.049263565687501,0.827299999999999,False,NM,0.0457049,225
mp-1110607,Rb2AgIrF6,-2.166378665666666,0.06518180383333101,1.4737,False,NM,3.24e-05,225
mp-1110808,Rb2AgMoBr6,-1.299246832666666,0.064340510479169,0.6687000000000001,True,FM,2.997909,225
mp-1110796,Rb2AgMoCl6,-1.596520025666666,0.022125837312501003,1.0147,True,FM,2.9985798,225
mp-1110784,Rb2AgMoF6,-2.5906074216666672,0.0,2.6738,True,FM,3.0000001,225
mp-1110819,Rb2AgMoI6,-0.8914548816666661,0.120369658145833,0.6940000000000001,True,FM,2.9981872,225
mp-1110603,Rb2AgPdF6,-2.169373212666664,0.0,0.0,True,FM,0.9999908999999991,225
mp-1110602,Rb2AgRhF6,-2.264492504666665,0.0,1.390499999999999,False,NM,0.0009622,225
mp-1110601,Rb2AgRuF6,-2.243152053666666,0.027363908833331,0.0,True,FM,0.999903,225
mp-1110804,Rb2AgSbBr6,-1.366274936666666,0.025189507562503002,1.1538,False,NM,0.0008355,225
mp-1110803,Rb2AgSbCl6,-1.615785375666666,0.0,1.6275,False,NM,0.0002372,225
mp-1110787,Rb2AgSbF6,-2.513192742666666,0.079065896208332,2.168,False,NM,0.001509,225
mp-1110817,Rb2AgSbI6,-0.9987248226666661,0.044976921687502,0.40949999999999903,False,NM,0.0039306,225
mp-1111736,Rb2AlAgBr6,-1.525940810666666,0.080527992625001,1.4709,False,NM,0.0022077,225
mp-1111472,Rb2AlAgCl6,-1.860683853666666,0.052510366625001005,2.4448,False,NM,0.0025876,225
mp-1110614,Rb2AlAgF6,-3.052170508666666,0.0,3.2492,False,NM,0.0001381,225
mp-1111722,Rb2AlAuBr6,-1.413173199499999,0.15343678324999901,0.0,False,NM,0.0001723,225
mp-1111467,Rb2AlAuCl6,-1.724260328499999,0.156401215599998,0.8409000000000001,False,NM,0.0005448,225
mp-1110596,Rb2AlAuF6,-2.8644463885,0.136318261066668,1.4095,False,NM,0.0003335,225
mp-1111797,Rb2AlAuI6,-0.9959750515,0.12237840449999801,0.0,False,NM,0.007648299999999,225
mp-1113818,Rb2AlCuF6,-2.9932984475,0.076676776825001,1.271299999999999,False,NM,0.0001302,225
mp-1113563,Rb2AlHgBr6,-1.48622114375,0.12476709150000201,0.0,False,NM,0.0013633,225
mp-1113345,Rb2AlHgCl6,-1.7929127677500012,0.136443574999999,0.0,False,NM,0.0061436,225
mp-1112411,Rb2AlHgF6,-2.967438022750001,0.10463721105000101,0.0,True,FM,0.7480011,225
mp-1114075,Rb2AlInBr6,-1.5905447561666661,0.069586409,2.1004,False,NM,0.0003882,225
mp-1114076,Rb2AlInCl6,-1.9227813101666662,0.06049022631249901,2.9942,False,NM,0.000102199999999,225
mp-1113775,Rb2AlInF6,-3.154693985166666,0.017926034811109,4.202100000000001,False,NM,0.0018743,225
mp-989528,Rb2AlInH6,-0.166062167916665,0.07341539384375001,0.140099999999999,False,NM,0.000277499999999,225
mp-1114138,Rb2AlInI6,-1.134806658166666,0.07745340525,0.8989,False,NM,0.0001259,225
mp-1114010,Rb2AlTlBr6,-1.626584340833333,0.076788929500002,2.8889,False,NM,0.0029157,225
mp-1114008,Rb2AlTlCl6,-1.9625217438333342,0.06253763349999901,3.8790999999999993,False,NM,7.910000000000001e-05,225
mp-1113654,Rb2AlTlF6,-3.190875712833334,0.0,5.3013,False,NM,0.000304199999999,225
mp-989539,Rb2AlTlH6,-0.19802365458333301,0.039905345041666006,0.7191999999999991,False,NM,4.7900000000000006e-05,225
mp-1114117,Rb2AlTlI6,-1.165555580833334,0.09550348949999901,1.8325999999999991,False,NM,0.0038047,225
mp-1111721,Rb2AsAuBr6,-1.20359606825,0.045404919749999,0.0,False,NM,0.0008332999999990001,225
mp-1111626,Rb2AsAuCl6,-1.42524261825,0.063384778849999,0.25930000000000003,False,NM,0.000517,225
mp-1110595,Rb2AsAuF6,-2.2565488442499992,0.22035511299999602,0.8073,False,NM,0.0018451,225
mp-1111796,Rb2AsAuI6,-0.8758640292500001,0.051861006249998,0.0,False,NM,0.0008124,225
mp-1111720,Rb2BiAuBr6,-1.315900394499999,0.08460106487499901,0.41080000000000005,False,NM,0.0017848999999990002,225
mp-1111719,Rb2BiAuCl6,-1.5446268965,0.039008328066666,0.9711999999999991,False,NM,0.001008899999999,225
mp-1111403,Rb2BiAuF6,-2.3630892465,0.16701007753333302,1.3242999999999991,False,NM,0.0010881,225
mp-1111795,Rb2BiAuI6,-0.9720027475,0.07996994624999801,0.0,False,NM,0.0032234,225
mp-989573,Rb2BrCl6F,-1.1812926335,0.0,0.9202999999999991,False,NM,0.0,225
mp-1110820,Rb2CeAgBr6,-1.842134083666665,0.045689086000001,0.24330000000000002,True,FM,0.9967415,225
mp-1110809,Rb2CeAgCl6,-2.141492367666666,0.028132959250000002,0.27380000000000004,True,FM,1.0018365,225
mp-1111844,Rb2CeAgF6,-3.118304369666666,0.0598646035,0.0,True,FM,0.9687348,225