material_id,formula,formation_energy,ehull,band_gap,is_magnetic_x,magnetic_ordering,total_magnetization_x,spacegroup,heusler_type,is_magnetic_y,total_magnetization_y
mp-30406,Li2TlAu,-0.380884878333333,0.028401330000001,0.0,False,NM,4.1200000000000005e-05,216,full,False,4.1200000000000005e-05
mp-865711,Li2TlAu,-0.409286208333334,0.0,0.0,False,NM,2.6e-06,225,full,False,4.1200000000000005e-05
mp-865713,Li2TlBi,-0.424853982083334,0.004520283333327,0.2293,False,NM,0.0,225,full,False,0.0
mp-1184955,Li2TlCd,-0.267449943333332,0.007576318750011,0.0,False,NM,1e-07,225,full,False,1e-07
mp-1222604,Li2TlCd,-0.273325105833333,0.00170115625001,0.0,False,NM,1e-06,216,full,False,1e-07
mp-1184956,Li2TlHg,-0.324482497708334,0.009609435000001,0.0,False,NM,2.1e-06,225,full,False,2.1e-06
mp-1184958,Li2TlIn,-0.30367556583333,0.010182938125002,0.0,False,NM,1e-07,225,full,False,1e-07
mp-975609,Li2TlPb,-0.248427169999999,9.97975000007756e-05,0.0,False,NM,1.1e-06,225,full,False,1.1e-06
mp-865863,Li2TlPd,-0.369073660833333,0.0,0.0,False,NM,4e-07,225,full,False,4e-07
mp-975608,Li2TlPt,-0.434467043333331,0.0207822375,0.0,False,NM,0.0009704,225,full,False,0.0009704
mp-1184973,Li2TlSb,-0.481713678333335,0.027927600119042,0.6976000000000001,False,NM,0.0,225,full,False,0.0
mp-975780,Li2TlSn,-0.28046128625,0.006927130833332,0.0,False,NM,4.599999999999997e-06,225,full,False,4.599999999999997e-06
mp-865860,Li2TmIn,-0.350390548333333,0.0,0.0,False,NM,1e-07,225,full,False,1e-07
mp-975786,Li2TmTl,-0.261420439046297,0.016064079953704,0.0,False,NM,0.0003625,225,full,False,0.0003625
mp-1185126,Li2YAl,-0.213556509722222,0.021986638194444,0.0001,False,NM,3.69e-05,225,full,False,3.69e-05
mp-1185233,Li2YIn,-0.394097875833333,0.0,0.047899999999999,False,NM,4.7e-06,225,full,False,4.7e-06
mp-865867,Li2YTl,-0.324080843333334,0.0,0.0,False,NM,1.25e-05,225,full,False,1.25e-05
mp-865735,Li2YbGe,-0.323611749583333,0.283495515833335,0.0,False,NM,4e-07,225,full,False,4e-07
mp-1185190,Li2YbIn,-0.344111319583335,0.0,0.0,False,NM,4.4e-06,225,full,False,4.4e-06
mp-866180,Li2YbPb,-0.286371997083332,0.140024426500001,0.0,False,NM,6.31e-05,225,full,False,6.31e-05
mp-866191,Li2YbSi,-0.253610598333333,0.191856686166666,0.0884,False,NM,1.699999999999999e-06,225,full,False,1.699999999999999e-06
mp-866192,Li2YbSn,-0.394051417083336,0.085047740749999,0.0,False,NM,2.34e-05,225,full,False,2.34e-05
mp-1185186,Li2YbTl,-0.274205694583333,0.0,0.0,False,NM,0.0,225,full,False,0.0
mp-865871,Li2ZnAu,-0.388583884583333,0.014122962019229,0.0,False,NM,2.1200000000000004e-05,225,full,False,2.1200000000000004e-05
mp-12411,Li2ZnGe,-0.322400300416666,0.017217836249999,0.0,False,NM,0.0,216,full,False,0.0
mp-567389,Li2ZnGe,-0.238013897916666,0.101604238749999,0.0,False,NM,0.002261,225,full,False,0.0
mp-1210750,Li2ZnPb,-0.219703936666666,0.040884049166667,0.0,False,NM,0.0002872,216,full,False,0.0002872
mp-1222606,Li2ZnSb,-0.351937540711807,0.193468926249999,0.0,False,NM,0.006509699999999,216,full,False,0.006509699999999
mp-11490,Li2ZnSn,-0.270487060416666,0.0471105075,0.0,False,NM,3.799999999999998e-06,225,full,False,3.799999999999998e-06
mp-1222600,Li2ZnSn,-0.317597567916666,0.0,0.0,False,NM,5e-07,216,full,False,3.799999999999998e-06
mp-1206664,Li2ZrAl,-0.047821572374999,0.225953148125,0.0,False,NM,0.010003,216,full,False,0.010003
mp-862613,LiAc2Ga,-0.261359985416667,0.021974541770831,0.0,False,NM,1e-06,225,full,False,1e-06
mp-862667,LiAc2Ge,-0.295858690833336,0.0,0.0,False,NM,0.0003871,225,full,False,0.0003871
mp-862685,LiAc2Ir,-0.31991860541666,0.026701294791664,0.0,False,NM,4.1e-06,225,full,False,4.1e-06
mp-1185294,LiAc2Pb,-0.265751979583329,0.0,0.0,False,NM,0.4198186,225,full,False,0.4198186
mp-862686,LiAc2Ru,-0.001742076666666,0.085774272291665,0.0,False,NM,0.0001391,225,full,False,0.0001391
mp-861876,LiAc2Si,-0.173839342083334,0.0,0.0,False,NM,8.19e-05,225,full,False,8.19e-05
mp-1185292,LiAc2Sn,-0.349594845833336,0.008771794999999,0.0,False,NM,0.009879599999999,225,full,False,0.009879599999999
mp-1185293,LiAc2Tl,-0.254456247916664,0.0,0.0,False,NM,0.00832,225,full,False,0.00832
mp-1185285,LiAcHg2,-0.466574312291669,0.0,0.0,False,NM,1.16e-05,225,full,False,1.16e-05
mp-1185329,LiAcRh2,-0.352625018541669,0.0,0.2955,False,NM,0.0,225,full,False,0.0
mp-864755,LiAcTe2,-1.4200840447916652,0.0,0.5567000000000001,False,NM,0.0,225,full,False,0.0
mp-862549,LiAcTl2,-0.389536811041665,0.0,0.0,False,NM,2e-07,225,full,False,2e-07
mp-9472,LiAg2Ge,-0.158556680416666,0.0,0.0,False,NM,1.4e-06,225,full,False,1.4e-06
mp-974642,LiAg2Pb,-0.122737301666664,0.016027206666666,0.0,False,NM,1.04e-05,225,full,False,1.04e-05
mp-974634,LiAg2Pd,-0.193859034166667,0.01689044,0.0,False,NM,2e-07,225,full,False,2e-07
mp-1185309,LiAg2Sb,-0.252402341041669,0.006671043749999,0.0,False,NM,8.820000000000004e-05,225,full,False,8.820000000000004e-05
mp-2927,LiAg2Sn,-0.230473382916665,0.0,0.0,False,NM,1.1e-06,225,full,False,1.1e-06
mp-1100393,LiAgSe,-0.6178952589930561,0.17461224,0.213999999999999,False,NM,2.75e-05,216,half,False,2.75e-05
mp-962069,LiAgTe,-0.560684517222221,0.126158813333332,0.0,False,NM,0.000942399999999,216,half,False,0.000942399999999
mp-1185321,LiAl2Au,-0.404253921666665,0.062091590833333,0.0,False,NM,1.699999999999999e-06,225,full,False,1.699999999999999e-06
mp-1185307,LiAl2Cu,-0.186585685833332,0.0089476465,0.0,False,NM,3.799999999999998e-06,225,full,False,3.799999999999998e-06
mp-1207174,LiAl2Ge,0.075042665416666,0.29355776,0.0,False,NM,0.0022583,225,full,False,0.0022583
mp-11512,LiAl2Ir,-0.8143778916666691,0.0,0.0,False,NM,5.299999999999997e-06,225,full,False,5.299999999999997e-06
mp-862318,LiAl2Ni,-0.489748536666665,0.0,0.0,False,NM,4.5e-06,225,full,False,4.5e-06
mp-982667,LiAl2Os,-0.48010702583333,0.022611721666667,0.0,False,NM,0.0039473,225,full,False,0.0039473
mp-30817,LiAl2Pd,-0.6666604541666651,0.0,0.0,False,NM,1.3200000000000002e-05,225,full,False,1.3200000000000002e-05
mp-30819,LiAl2Pt,-0.909099746666665,0.0,0.0,False,NM,3.299999999999999e-06,225,full,False,3.299999999999999e-06
mp-30821,LiAl2Rh,-0.7617179716666661,0.0,0.0,False,NM,1.3e-06,225,full,False,1.3e-06
mp-982666,LiAl2Tc,-0.329450549365075,0.024522562857143,0.0,False,NM,3.24e-05,225,full,False,3.24e-05
mp-11947,LiAlAg2,-0.237830734166665,0.0,0.0,False,NM,7e-07,225,full,False,7e-07
mp-862717,LiAlAu2,-0.581746309166668,0.0,0.0,False,NM,6e-07,225,full,False,6e-07
mp-867272,LiAlCu2,-0.221278555833333,0.0,0.0,False,NM,3.1e-06,225,full,False,3.1e-06
mp-5920,LiAlGe,-0.291353459444444,0.0,0.052699999999999,False,NM,2e-07,216,half,False,2e-07
mp-961645,LiAlGe,0.049045993888889,0.340399453333334,0.0,False,NM,0.001516,216,half,False,2e-07
mp-867812,LiAlNi2,-0.368700581666667,0.01952963520833,0.0,False,NM,0.0006121,225,full,False,0.0006121
mp-867820,LiAlPd2,-0.8191622916666641,0.0,0.0,False,NM,2.4e-06,225,full,False,2.4e-06
mp-862296,LiAlPt2,-1.020856209166666,0.0,0.0,False,NM,5.299999999999997e-06,225,full,False,5.299999999999997e-06
mp-862297,LiAlRh2,-0.7054825141666641,0.0,0.0,False,NM,2.7e-06,225,full,False,2.7e-06
mp-3161,LiAlSi,-0.191268167777777,0.0,0.112099999999999,False,NM,0.0,216,half,False,0.0
mp-1185304,LiAlZn2,-0.142787189166667,0.007213395555556,0.0,False,NM,8.560000000000001e-05,225,full,False,8.560000000000001e-05
mp-862321,LiAsPd2,-0.5105556197916631,0.03302843736607,0.0,False,NM,8e-07,225,full,False,8e-07
mp-862335,LiAsRh2,-0.583840619791665,0.0,0.0,False,NM,1.7400000000000003e-05,225,full,False,1.7400000000000003e-05
mp-631545,LiBBr2,0.452087444375,1.679203853472223,0.6011000000000001,False,NM,0.0001804,216,full,False,0.0001804
mp-862377,LiBe2Ir,-0.386029505833333,0.0,0.0,False,NM,1e-07,225,full,False,1e-07
mp-1185317,LiBe2Pt,-0.50947539083333,0.0,0.0,False,NM,1e-07,225,full,False,1e-07
mp-982974,LiBeAu2,-0.333415724583335,0.005794140624999,0.0,False,NM,4.1e-06,225,full,False,4.1e-06
mp-862312,LiBePd2,-0.5522386020833321,0.0,0.0,False,NM,3e-06,225,full,False,3e-06
mp-862316,LiBePt2,-0.684067622083332,0.0,0.0,False,NM,2.2e-06,225,full,False,2.2e-06
mp-1100398,LiBeSb,-0.325963126111111,0.0,1.010499999999999,False,NM,0.000867199999999,216,half,False,0.000867199999999
mp-861905,LiBiPd2,-0.431687925416664,0.0,0.0,False,NM,1e-07,225,full,False,1e-07
mp-861903,LiBiRh2,-0.301772305416665,0.0,0.0,False,NM,2.4700000000000004e-05,225,full,False,2.4700000000000004e-05
mp-862632,LiCa2Al,-0.158353436666667,0.0,0.0,False,NM,0.000214599999999,225,full,False,0.000214599999999
mp-867803,LiCa2Cd,-0.187906373333332,0.0,0.0,False,NM,4.25e-05,225,full,False,4.25e-05
mp-867805,LiCa2Ga,-0.300475354166666,0.000945809583332,0.0,False,NM,0.000174,225,full,False,0.000174
mp-1206798,LiCa2Ge,-0.394433274583332,0.067333073541666,0.0,False,NM,0.0011194,225,full,False,0.0011194
mp-867210,LiCa2Hg,-0.296985878958334,0.020214906782407,0.0,False,NM,0.007806599999999,225,full,False,0.007806599999999
mp-867211,LiCa2In,-0.383010116666667,0.0,0.0,False,NM,0.000135399999999,225,full,False,0.000135399999999
mp-867222,LiCa2Ir,-0.233017546666665,0.019243723333332,0.0,False,NM,0.0,225,full,False,0.0
mp-975368,LiCa2Mg,-0.018665140416667,0.036161670833333,0.0,False,NM,0.0127782,225,full,False,0.0127782
mp-1185325,LiCa2Pb,-0.395827720833332,0.021662026093749,0.0,False,NM,0.199283699999999,225,full,False,0.199283699999999
mp-862764,LiCa2Rh,-0.208042231666667,0.017057908333331,0.0,False,NM,1.83e-05,225,full,False,1.83e-05
mp-867167,LiCa2Tl,-0.355489576666666,0.0,0.0,False,NM,0.003366999999999,225,full,False,0.003366999999999
mp-961684,LiCaAs,-1.147813833888888,0.088278880833332,1.876799999999999,False,NM,7.730000000000002e-05,216,half,False,7.730000000000002e-05
mp-961723,LiCaRh,0.061849753148147,0.321823320370374,0.253099999999999,False,NM,2.56e-05,216,half,False,2.56e-05
mp-1100409,LiCaSb,-0.8429311677777771,0.163114697499999,0.9841,False,NM,1.73e-05,216,half,False,1.73e-05
mp-867204,LiCd2Ag,-0.208504015416664,0.0,0.0,False,NM,1e-07,225,full,False,1e-07
mp-867160,LiCd2Au,-0.367566476666663,0.0,0.0,False,NM,1.4e-06,225,full,False,1.4e-06
mp-1185314,LiCd2Cu,-0.143031636666666,0.022255256249998,0.0,False,NM,5e-07,225,full,False,5e-07
mp-1185212,LiCd2Ni,-0.110278376666665,0.05500851625,0.0,False,NM,5.42e-05,225,full,False,5.42e-05
mp-867196,LiCd2Pd,-0.386321438333331,0.0,0.0,False,NM,5.4e-06,225,full,False,5.4e-06
mp-867206,LiCd2Pt,-0.409395570833331,0.0,0.0,False,NM,1.1e-06,225,full,False,1.1e-06
mp-867115,LiCd2Rh,-0.283306771666666,0.0,0.0,False,NM,1e-06,225,full,False,1e-06
mp-867872,LiCdAg2,-0.156172906666668,0.012477866249998,0.0,False,NM,3e-07,225,full,False,3e-07
mp-1009006,LiCdAs,-0.203703576944444,0.256337686666665,0.0,False,NM,7.599999999999997e-06,216,half,False,7.599999999999997e-06
mp-1018135,LiCdAs,-0.460041263611109,0.0,0.0,False,NM,0.0,216,half,False,7.599999999999997e-06
mp-867877,LiCdAu2,-0.392364251666666,0.012892592555569,0.0,False,NM,0.0,225,full,False,0.0
mp-1185207,LiCdHg2,-0.213750850416669,0.0,0.0,False,NM,3e-07,225,full,False,3e-07
mp-10687,LiCdP,-0.204713466964279,0.223434539444445,0.0,False,NM,0.000451599999999,216,half,False,0.000451599999999
mp-867924,LiCdPd2,-0.436040725833331,0.0,0.0,False,NM,8e-07,225,full,False,8e-07
mp-1100425,LiCdSb,-0.27010311111111,0.112455940909091,0.0,False,NM,9.150000000000004e-05,216,half,False,9.150000000000004e-05
mp-1185234,LiCe2Al,-0.08044246808333,0.136155195416666,0.0,False,NM,0.029266999999999,225,full,False,0.029266999999999
mp-1185229,LiCe2Ga,-0.216944902083334,0.107945083541668,0.0,True,FM,0.1285345,225,full,True,0.1285345
mp-1185224,LiCe2Os,-0.060165695833331,0.052616313291667,0.0,True,FM,0.5754634,225,full,True,0.5754634
mp-1185218,LiCe2Pb,-0.105849445833332,0.187568723035715,0.0,True,FM,2.584641399999999,225,full,True,2.584641399999999
mp-973561,LiCe2Ru,-0.091424283333331,0.135033146527777,0.0,True,FiM,0.6861899,225,full,True,0.6861899
mp-1185334,LiCeHg2,-0.414726450416665,0.011344918333328,0.0,True,FM,0.873669799999999,225,full,True,0.873669799999999
mp-11830,LiCeSn,-0.361559166111109,0.168594930416666,0.0,True,FM,0.9824166,216,half,True,0.9824166
mp-867295,LiCeTl2,-0.408952979166663,0.0,0.0,True,FM,1.0333838,225,full,True,1.0333838
mp-1185346,LiCeZn2,-0.182851000833332,0.038064674166667,0.0,True,FM,0.816568099999999,225,full,True,0.816568099999999
mp-13914,LiCo2Ge,-0.211834924583333,0.0,0.0,False,NM,1.8700000000000004e-05,225,full,False,1.8700000000000004e-05
mp-867293,LiCo2Si,-0.389936305833333,0.0,0.0,False,NM,3.299999999999999e-06,225,full,False,3.299999999999999e-06
mp-1236414,LiCrO2,-1.304004118333333,1.104617734999999,0.0,True,FM,1.2887966,225,full,True,1.2887966
mp-1185306,LiCrRh2,-0.151835279166668,0.0,0.0,True,FiM,2.1201973,225,full,True,2.1201973
mp-567097,LiCu2Ge,-0.182762122083333,0.0,0.0,False,NM,0.0,225,full,False,0.0
mp-7473,LiCu2Si,-0.202122575833333,0.0,0.0,False,NM,2e-07,225,full,False,2e-07
mp-1185322,LiCuAu2,-0.303081698333334,0.014459261249997,0.0,False,NM,4.999999999999999e-06,225,full,False,4.999999999999999e-06
mp-1009014,LiCuO,-1.031819572777777,0.4011270175,0.0,False,NM,0.0056152,216,half,False,0.0056152
mp-862657,LiCuPd2,-0.284825976666665,0.0,0.0,False,NM,3.799999999999998e-06,225,full,False,3.799999999999998e-06
mp-861913,LiDy2Al,-0.249520114166667,0.008685380208333,0.0,False,NM,0.000213,225,full,False,0.000213
mp-1185347,LiDy2Ga,-0.380093378020834,0.022431281510417,0.0,False,NM,0.0005254,225,full,False,0.0005254
mp-1185324,LiDy2In,-0.356310399166666,0.014698481249997,0.0,False,NM,0.000978,225,full,False,0.000978
mp-861915,LiDy2Ir,-0.57367242166666,0.0,0.0,False,NM,4.4e-06,225,full,False,4.4e-06
mp-867776,LiDy2Os,-0.282779916666669,0.0,0.0,False,NM,3e-07,225,full,False,3e-07
mp-1185326,LiDy2Pt,-0.74672283895833,0.044908122291666,0.0,False,NM,0.001584,225,full,False,0.001584
mp-1185331,LiDy2Rh,-0.477107291666664,0.017119758452377,0.0,False,NM,2.6e-06,225,full,False,2.6e-06
mp-867111,LiDy2Ru,-0.280463101666665,0.0,0.0,False,NM,9.6e-06,225,full,False,9.6e-06
mp-862588,LiDy2Tc,-0.045281677395838,0.031292116979166,0.0,False,NM,0.004074299999999,225,full,False,0.004074299999999
mp-1185327,LiDy2Tl,-0.281625983333331,0.020664610624997,0.0,False,NM,0.0005618,225,full,False,0.0005618
mp-861885,LiDyAu2,-0.712369966249997,0.001754163333333,0.0,False,NM,0.0,225,full,False,0.0
mp-861886,LiDyHg2,-0.5098941516666641,0.0,0.0,False,NM,7e-07,225,full,False,7e-07
mp-974059,LiDyIn2,-0.487198355416666,0.026949344999998,0.0,False,NM,3e-07,225,full,False,3e-07
mp-867108,LiDyTl2,-0.394521222916672,0.0,0.0,False,NM,3e-06,225,full,False,3e-06
mp-862493,LiEr2Al,-0.238739195833336,0.014880292083329,0.0,False,NM,9.78e-05,225,full,False,9.78e-05
mp-1185330,LiEr2Au,-0.495437786250001,0.065075226041667,0.0,False,NM,0.0002557,225,full,False,0.0002557
mp-976793,LiEr2Ga,-0.374101838333334,0.027004099947916,0.0,False,NM,0.0004325,225,full,False,0.0004325
mp-976743,LiEr2In,-0.336645170833332,0.014228818958333,0.0,True,FM,0.35786,225,full,True,0.35786
mp-862554,LiEr2Ir,-0.6210271408333341,0.0,0.0,False,NM,3.9e-05,225,full,False,3.9e-05
mp-862558,LiEr2Os,-0.276937678333331,0.0,0.0,False,NM,8.9e-06,225,full,False,8.9e-06
mp-862660,LiEr2Rh,-0.518117508333331,0.007605393166666,0.0,False,NM,2.09e-05,225,full,False,2.09e-05
mp-862661,LiEr2Ru,-0.319680523333332,0.0,0.0,False,NM,4.4e-06,225,full,False,4.4e-06
mp-867139,LiEr2Tc,-0.07237953625,0.021101869479167,0.0,False,NM,0.010313,225,full,False,0.010313
mp-976744,LiEr2Tl,-0.177070156666667,0.027121833055557,0.0,False,NM,0.0002702,225,full,False,0.0002702
mp-862599,LiErAu2,-0.7798675875000001,0.008297179531254,0.0,False,NM,1.5e-06,225,full,False,1.5e-06
mp-862618,LiErHg2,-0.493538861250002,0.0,0.0,False,NM,1.8e-06,225,full,False,1.8e-06
mp-862619,LiErIn2,-0.468209642499999,0.017951895312499,0.0,False,NM,1.4e-06,225,full,False,1.4e-06
mp-862492,LiErTl2,-0.300405797500002,0.0,0.0,False,NM,1.6e-06,225,full,False,1.6e-06
mp-1185341,LiEu2Cd,-0.186534305416664,0.010425947499999,0.0,True,FM,14.4378158,225,full,True,14.4378158
mp-1185349,LiEu2Hg,-0.299002903958339,0.007258931666662,0.0,True,FM,14.4400863,225,full,True,14.4400863
mp-1185339,LiEu2Ir,-0.287804431666671,0.011091763154752,0.0,True,FiM,14.067939,225,full,True,14.067939
mp-1185335,LiEu2Tl,-0.293492609166669,0.0,0.0,True,FM,14.0484412,225,full,True,14.0484412
mp-865175,LiEuTl2,-0.400853670416665,0.0,0.0,True,FM,7.0599177,225,full,True,7.0599177
mp-973979,LiFePd2,-0.242395083333332,0.012542315833334,0.0,True,FM,3.9033777,225,full,True,3.9033777
mp-862290,LiFeRh2,-0.121665890833333,0.0,0.0,True,FM,4.4817792,225,full,True,4.4817792
mp-1185316,LiGa2Co,-0.252121516666667,0.035618143749999,0.0,False,NM,1.1e-06,225,full,False,1.1e-06
mp-5419,LiGa2Ir,-0.5660502191666691,0.0,0.0,False,NM,0.0,225,full,False,0.0
mp-867223,LiGa2Ni,-0.393997691666665,0.004769647954544,0.0,False,NM,0.0,225,full,False,0.0
mp-5159,LiGa2Pd,-0.534250166666666,0.0,0.0,False,NM,1.8e-06,225,full,False,1.8e-06
mp-20363,LiGa2Pt,-0.6194263145833321,0.0,0.0,False,NM,7e-07,225,full,False,7e-07
mp-4913,LiGa2Rh,-0.550842277083332,0.0,0.0,False,NM,8.2e-06,225,full,False,8.2e-06
mp-20567,LiGa2Ru,-0.369794602916668,0.005738749583329,0.0,False,NM,2.1e-06,225,full,False,2.1e-06
mp-865963,LiGaAg2,-0.212278126666666,0.0,0.0,False,NM,1e-07,225,full,False,1e-07
mp-861900,LiGaAu2,-0.443066271666666,0.0,0.0,False,NM,1.4e-06,225,full,False,1.4e-06
mp-861901,LiGaCu2,-0.204676986666665,0.0,0.0,False,NM,0.0,225,full,False,0.0
mp-867197,LiGaNi2,-0.312183139166666,0.0,0.0,False,NM,2.2e-06,225,full,False,2.2e-06
mp-867198,LiGaPd2,-0.704696346666665,0.0,0.0,False,NM,1.5e-06,225,full,False,1.5e-06
mp-867170,LiGaPt2,-0.7146841527083331,0.0,0.0,False,NM,4e-07,225,full,False,4e-07
mp-862730,LiGaRh2,-0.5309520077083321,0.0,0.0,False,NM,5e-07,225,full,False,5e-07
mp-11390,LiGaSi,-0.135539720277778,0.074605104999999,0.1885,False,NM,0.0,216,half,False,0.0
mp-1185392,LiGd2Al,-0.210951966666666,0.006683447333333,0.0,True,FM,15.328016,225,full,True,15.328016
mp-1185394,LiGd2Ga,-0.327617105208334,0.0,0.0,True,FM,15.307721,225,full,True,15.307721
mp-1185362,LiGd2In,-0.348397162916668,0.020167366249999,0.0,True,FM,14.8328339,225,full,True,14.8328339
mp-862765,LiGd2Ir,-0.517456589166663,0.0,0.0,True,AFM,0.0001069,225,full,True,0.0001069
mp-1185354,LiGd2Os,-0.169583104166669,0.0,0.0,True,FiM,14.5299233,225,full,True,14.5299233
mp-1185609,LiGd2Rh,2.089858764166667,2.485673194166665,0.0,True,FM,2.882075699999999,225,full,True,2.882075699999999
mp-866058,LiGd2Ru,-0.191537425416665,0.0,0.0,True,FiM,14.5210174,225,full,True,14.5210174
mp-1185378,LiGd2Tl,-0.272816596666665,0.0,0.0,True,FM,15.8931595,225,full,True,15.8931595
mp-867244,LiGdAu2,-0.712535591666664,0.0,0.0,True,FM,7.4203079,225,full,True,7.4203079
mp-867969,LiGdHg2,-0.471934312916666,0.0,0.0,True,FM,7.3475332,225,full,True,7.3475332
mp-1185472,LiGdIn2,0.766301585208339,1.250184536874996,0.0,True,FM,1.1825702,225,full,True,1.1825702
mp-1185386,LiGdTl2,-0.341281419166662,0.008104440000003,0.0,True,FM,6.9216705,225,full,True,6.9216705
mp-1185318,LiGe2Ir,-0.317594605833333,0.013681885343748,0.0,False,NM,2.499999999999999e-06,225,full,False,2.499999999999999e-06
mp-861881,LiGeAu2,-0.320622574583334,0.0,0.0,False,NM,5e-07,225,full,False,5e-07
mp-861882,LiGeIr2,-0.412383399583331,0.0,0.0,False,NM,8e-07,225,full,False,8e-07
mp-29633,LiGePd2,-0.609234879583333,0.0,0.0,False,NM,2e-07,225,full,False,2e-07
mp-1185305,LiGePt2,-0.5349002470833301,0.003090732500004,0.0,False,NM,7e-06,225,full,False,7e-06
mp-13322,LiGeRh2,-0.6493432920833331,0.0,0.0,False,NM,1.3e-06,225,full,False,1.3e-06
mp-976598,LiHf2Ir,-0.5352274958333311,0.014170271944447,0.0,False,NM,1.3e-06,225,full,False,1.3e-06
mp-862684,LiHf2Os,-0.460033429166671,0.0,0.0,False,NM,2.4500000000000003e-05,225,full,False,2.4500000000000003e-05
mp-861875,LiHf2Re,-0.206355308958332,0.0,0.0,False,NM,0.000599399999999,225,full,False,0.000599399999999
mp-976600,LiHf2Tc,-0.23161977416667,0.03251200333333,0.0,False,NM,2.4e-06,225,full,False,2.4e-06
mp-1185323,LiHfAu2,-0.57096973916667,0.013249803749992,0.0,False,NM,2.1e-06,225,full,False,2.1e-06