material_id,formula,formation_energy,ehull,band_gap,is_magnetic,magnetic_ordering,total_magnetization,spacegroup
mp-814,DySe,-1.998425757031249,0.0,0.0,False,NM,8.7e-06,225
mp-866287,DySnAu2,-0.6910928916666661,0.0,0.0,False,NM,0.0,225
mp-21014,DySnPd2,-0.8744328691666721,0.0,0.0,False,NM,1.4e-06,225
mp-866290,DySnRh2,-0.791853919166663,0.0,0.0,False,NM,0.0187305,225
mp-865358,DySnRu2,-0.354631731666665,0.0006420966666660001,0.0,False,NM,0.0002559,225
mp-1184071,DyTa3,0.39568277250000206,0.39568277250000206,0.0,False,NM,0.0001355,225
mp-1184076,DyTaOs2,-0.28093021551389,0.103928737249994,0.0,False,NM,0.0001102,225
mp-865364,DyTaRu2,-0.356988389749998,0.0,0.0,False,NM,1.8500000000000002e-05,225
mp-2159,DyTe,-1.495048897499998,0.0,0.0,False,NM,2e-06,225
mp-1184103,DyThRu2,-0.42481934791666304,0.010470128046874002,0.0,False,NM,0.000252999999999,225
mp-866011,DyThTc2,-0.084714211956772,0.11026548062500201,0.0,False,NM,0.0008167,225
mp-1184061,DyTlRh2,-0.5410078687500021,0.014933651666661002,0.0,False,NM,2.7e-06,225
mp-1184080,DyTmAg2,-0.32691570874999903,0.006113049999999001,0.0,False,NM,1.79e-05,225
mp-1184116,DyTmCd2,-0.287128220416666,0.005548552500000001,0.0,False,NM,1.43e-05,225
mp-1184109,DyTmCu2,-0.27760004625,0.005752262499999001,0.0,False,NM,1.3900000000000002e-05,225
mp-1184135,DyTmHg2,-0.575390115000004,0.0,0.0,False,NM,7.0999999999999955e-06,225
mp-1184137,DyTmIn2,-0.567397001249999,0.007347782222201,0.0,False,NM,4.1e-06,225
mp-1184120,DyTmIr2,-0.879266512916667,0.005249275267857001,0.0,True,FM,0.205810599999999,225
mp-866013,DyTmMg2,-0.047000915416666005,0.002393127499999,0.0,False,NM,4.8e-06,225
mp-1225536,DyTmMn4,0.10510061943486401,0.12171440030045401,0.0,True,FiM,1.9078333,216
mp-1184158,DyTmRh2,-0.9172714704166661,0.01080523,0.0,False,NM,0.0020141,225
mp-1184074,DyTmRu2,-0.366935287916665,0.0032119370000010003,0.0,False,NM,7.33e-05,225
mp-1225531,DyUAl4,-0.31970059583333404,0.113604607083331,0.0,True,FM,2.6333754,216
mp-971924,DyYAg2,-0.313097208749998,0.00012226750000000002,0.0,False,NM,3.77e-05,225
mp-971922,DyYAl2,-0.43846450624999905,0.042303950535718005,0.0,False,NM,1.899999999999999e-06,225
mp-979417,DyYCd2,-0.299809932916665,0.005004622499999001,0.0,False,NM,1e-05,225
mp-979946,DyYCu2,-0.23897115875000002,0.016916380000001,0.0,False,NM,1.63e-05,225
mp-1225043,DyYFe4,0.136329066388886,0.19791483916666303,0.0,True,FiM,7.499879799999999,216
mp-971799,DyYHg2,-0.587166917500006,0.0,0.0,False,NM,1.02e-05,225
mp-1184424,DyYIn2,-0.596735653749998,0.0066585108333390005,0.0,False,NM,1.3900000000000002e-05,225
mp-980387,DyYIr2,-0.8049817729166661,0.0017248327678550002,0.0,True,FM,0.2153762,225
mp-1184136,DyYMg2,-0.064177132916666,0.002449902499999,0.0,False,NM,1.9200000000000003e-05,225
mp-979917,DyYRh2,-0.8461059754166651,0.008553877500000001,0.0,False,NM,1.5700000000000002e-05,225
mp-979434,DyYTl2,-0.45371397874999503,0.002646352500001,0.0,False,NM,0.0001747,225
mp-979712,DyYZn2,-0.380824673750002,0.007523622499999,0.0,False,NM,0.044639599999999,225
mp-865257,DyZnRh2,-0.654219407916663,0.0,0.0,False,NM,2.6e-06,225
mp-866009,DyZrRu2,-0.49434747041666505,0.0015284792968740001,0.0,False,NM,4e-07,225
mp-10752,Er,0.06685896666666401,0.06685896666666401,0.0,False,NM,1.4e-06,225
mp-1204723,Er11Cd45,-0.180132076071426,0.0009932550892850001,0.0,False,NM,0.4728517,216
mp-1212967,Er16In4Ir4O,-0.8327419700666651,0.004233233199999,0.0,False,NM,0.0356253,216
mp-1193830,Er2(Ni7B2)3,-0.351252980862067,0.003944033749998,0.0,True,FM,0.1628242,225
mp-1184110,Er2AgAu,-0.612601145416663,0.007829208750001001,0.0,False,NM,5.8600000000000015e-05,225
mp-1184075,Er2AgHg,-0.407943068541667,0.003646184999999,0.0,False,NM,3.19e-05,225
mp-977416,Er2AgIr,-0.6483532254166651,0.018923199999997,0.0,False,NM,0.0031064,225
mp-1184131,Er2AgOs,-0.319309517916666,0.014056422249999001,0.0,False,NM,1.9900000000000003e-05,225
mp-1184085,Er2AgPt,-0.8117368754166651,0.013385645624998001,0.0,False,NM,2.8e-06,225
mp-862978,Er2AgRu,-0.39368670791666505,0.0,0.0,False,NM,5e-07,225
mp-1184106,Er2AlCd,-0.337334309999998,0.017901855625,0.0,False,NM,0.0001263,225
mp-1184084,Er2AlZn,-0.41935247541666903,0.011803569999997002,0.0,False,NM,0.0005676,225
mp-1184096,Er2CdHg,-0.379241708125001,0.011054659999997002,0.0,False,NM,2e-06,225
mp-862981,Er2CdIn,-0.37796722916666503,0.0,0.0,False,NM,0.0009771,225
mp-1184134,Er2CdOs,-0.23960855499999703,0.07246449975000001,0.0,False,NM,8.380000000000003e-05,225
mp-1184125,Er2CoIr,-0.5745190599999991,0.061011356388878,0.0,True,FiM,0.267616099999999,225
mp-1184091,Er2CuAu,-0.573516309999998,0.012932881249998002,0.0,False,NM,3e-07,225
mp-1184124,Er2CuIr,-0.644442577499999,0.008417859722218,0.0,False,NM,2.1700000000000002e-05,225
mp-1521466,Ca2DyMnO6,-2.73140718395977,0.199196727166667,0.0,True,FiM,4.0000001,225
mp-1516398,Ca2DySbO6,-2.934467936166666,0.154943769999997,3.1986,False,NM,0.0,225
mp-1517097,Ca2FeBiO6,-2.102233132,0.144137748999999,0.4893,True,FM,5.0000003,225
mp-1205964,Ca2FeH6,-0.6509286475,0.0,1.500299999999999,False,NM,0.0,225
mp-19059,Ca2FeWO6,-2.486460758,0.186048871,0.0,True,FiM,4.0000202,225
mp-1520655,Ca2GaBiO6,-2.224239615749999,0.16891948445833102,0.0,False,NM,0.0,225
mp-1183450,Ca2GaHg,-0.540176436874999,0.020961306249997,0.0,False,NM,2.899999999999999e-06,225
mp-1516951,Ca2GdSbO6,-2.879543074999998,0.186330839166672,3.8144,True,FM,6.9999998,225
mp-1009755,Ca2Ge,-0.7149471366666661,0.0,0.5756,False,NM,0.0,225
mp-1207196,Ca2H6Os,-0.7095563258333341,0.0,2.7001,False,NM,0.0,225
mp-1079896,Ca2H6Ru,-0.7098598275000001,0.0,2.4473000000000003,False,NM,0.0,225
mp-1523252,Ca2HfNbO6,-3.332170996,0.186267606374993,0.0,False,NM,0.029183999999999002,225
mp-1519136,Ca2HfSnO6,-3.097831073499999,0.159915481250007,3.5477,False,NM,0.0,225
mp-1516534,Ca2HfTiO6,-3.572403279333333,0.116109330750001,2.4866,False,NM,0.0,225
mp-1522139,Ca2HfZrO6,-3.572141054999998,0.173415511250002,3.4088,False,NM,0.0,225
mp-1183503,Ca2HgBi,-0.8079776801282391,0.020743057708333002,0.0,False,NM,0.0312844,225
mp-1183454,Ca2HgGe,-0.6594672543749981,0.012770422500000001,0.012799999999999001,False,NM,0.0,225
mp-866105,Ca2HgPb,-0.5960727531249981,0.0,0.0,False,NM,0.0,225
mp-1183598,Ca2InHg,-0.585514224375,0.0024212093750000004,0.0,False,NM,0.0001485,225
mp-1183460,Ca2InPb,-0.48905493666666405,0.014453691874999001,0.0,False,NM,5.7e-06,225
mp-1516764,Ca2InSbO6,-2.418137422666666,0.176840557249999,1.4198,False,NM,0.0,225
mp-1518723,Ca2LaSbO6,-2.7986328865,0.30125986999999604,2.9168000000000003,False,NM,0.0,225
mp-1183457,Ca2MgCd,-0.18980382874999902,0.013824580312499002,0.0,False,NM,4e-07,225
mp-867350,Ca2MgIn,-0.29738252541666604,0.0,0.0,False,NM,6.7e-06,225
mp-861645,Ca2MgTl,-0.27888994458333405,0.0,0.0,False,NM,1.1e-06,225
mp-1518614,Ca2NbInO6,-2.810557453666666,0.189337623375001,3.463199999999999,False,NM,0.0,225
mp-1516857,Ca2NiBiO6,-1.85225734,0.19257039487499703,0.0,True,FM,1.0000041,225
mp-1009756,Ca2Pb,-0.536801102499996,0.014137890833334001,0.6495000000000001,False,NM,0.0,225
mp-1183607,Ca2PbAu,-0.645073704999998,0.0206689,0.0,False,NM,0.0001729,225
mp-863744,Ca2PdAu,-0.740615747500001,0.013046250833333,0.0,False,NM,0.0011941,225
mp-1183493,Ca2PdPt,-0.8133838899999971,0.023825183333343002,0.0,False,NM,2e-07,225
mp-19159,Ca2PdWO6,-2.181132698,0.34014274583333304,0.0,True,FM,1.7778904,225
mp-1183466,Ca2PtAu,-0.906918472499999,0.020134182500001003,0.0,False,NM,0.001188799999999,225
mp-1063314,Ca2Rh,-0.22373320000000002,0.062295558333332,0.0,False,NM,5.799999999999999e-06,225
mp-861950,Ca2SbAu,-0.9151396175000001,0.043361344034091004,0.19360000000000002,False,NM,0.0,225
mp-1519302,Ca2SbWO6,-2.205909240999999,0.44440121733333005,0.0,True,FM,1.0,225
mp-1009733,Ca2Si,-0.534257671666667,0.0,0.320999999999999,False,NM,0.0,225
mp-1009730,Ca2Sn,-0.6363162533333301,0.010972289166666,0.4354,False,NM,0.0,225
mp-866229,Ca2SnHg,-0.659526856875,0.0,0.14850000000000002,False,NM,2e-07,225
mp-1517296,Ca2TbFeO6,-2.5781541606666663,0.194629097437499,0.36160000000000003,True,FiM,3.0000007,225
mp-1520076,Ca2TbNiO6,-2.357294276666667,0.212571533999999,0.0,True,FM,0.9999855,225
mp-1516823,Ca2TbSbO6,-2.9191821536666662,0.16671317300000102,3.175799999999999,False,NM,0.0,225
mp-1518173,Ca2TiSbO6,-2.812069091333332,0.23977236914999903,0.0,False,NM,3.299999999999999e-06,225
mp-9413,Ca2TiSiO6,-3.397758357333333,0.104309328666666,2.3708,False,NM,0.0,225
mp-867849,Ca2TlCd,-0.39802235833333305,0.0,0.0,False,NM,7.8e-06,225
mp-1183453,Ca2TlHg,-0.5669576818750031,0.0,0.0,False,NM,2.6400000000000005e-05,225
mp-1183531,Ca2TlIn,-0.5482594699999971,0.0,0.0,False,NM,1.27e-05,225
mp-861604,Ca2TlPb,-0.495178358333334,0.0,0.0,False,NM,4.7600000000000005e-05,225
mp-1183512,Ca2TlSn,-0.5386192820833361,0.005924823749998,0.0,False,NM,5e-07,225
mp-1183461,Ca2TlZn,-0.343901705833336,0.00033388624999900005,0.0,False,NM,1.6400000000000002e-05,225
mp-1518804,Ca2VBiO6,-2.361615005000001,0.38549732149999905,0.6405999999999991,False,NM,0.0,225
mp-1519488,Ca2VSbO6,-2.420311885999999,0.325236578008927,0.0,False,NM,0.0004705,225
mp-1518070,Ca2YBiO6,-2.591262176,0.190903132687497,2.122099999999999,False,NM,0.0,225
mp-1183459,Ca2ZnCd,-0.278890027499999,0.012627786250000002,0.0,False,NM,7.4e-06,225
mp-1183463,Ca2ZnGa,-0.35844035687499903,0.005286312463234,0.0,False,NM,3.6e-06,225
mp-1183464,Ca2ZnHg,-0.39287897312499903,0.013920215000001,0.0,False,NM,7e-06,225
mp-1183608,Ca2ZnIn,-0.35589443666666504,0.017576287687499,0.0,False,NM,1.0100000000000002e-05,225
mp-1183470,Ca2ZnPb,-0.44726904499999703,0.003764967,0.0,False,NM,1.8200000000000002e-05,225
mp-867854,Ca2ZnRh,-0.288808329999998,0.021175050347222002,0.0,False,NM,2.7300000000000003e-05,225
mp-1183468,Ca2ZnSn,-0.5153830862499991,0.013189052916665,0.0,False,NM,0.0002871,225
mp-1521637,Ca2ZrFeO6,-2.799852334999999,0.149494715000002,0.0,True,FM,4.0000008,225
mp-1517008,Ca2ZrNbO6,-3.253079747000001,0.18997735862499102,0.0,False,NM,2.9500000000000006e-05,225
mp-1518540,Ca2ZrSnO6,-3.0079911025,0.174373955500001,3.5577,False,NM,0.0,225
mp-1518628,Ca2ZrTiO6,-3.479441290333334,0.133689823,2.393299999999999,False,NM,0.0,225
mp-1192828,Ca3(Cd2Pt)4,-0.47644539566666505,0.0,0.0,False,NM,0.259828699999999,225
mp-1183486,Ca3Ac,0.051937618124998,0.051937618124998,0.0,False,NM,0.0001291,225
mp-20581,Ca3In,-0.301133252083332,0.08165825583333401,0.0,False,NM,0.0011515,225
mp-1039230,Ca3Mg,0.019877545625000003,0.063939433125,0.0,False,NM,0.0111709,225
mp-1183485,Ca3Mn,0.36825710551724206,0.36825710551724206,0.0,True,FM,4.8107372999999995,225
mp-1183491,Ca3Nd,0.08862726562499901,0.08862726562499901,0.0,False,NM,0.026476399999999,225
mp-1183510,Ca3Os,0.41591363500000206,0.41591363500000206,0.0,False,NM,1.2600000000000001e-05,225
mp-1183509,Ca3Pm,0.097182285624999,0.097182285624999,0.0,False,NM,0.0665458,225
mp-1183494,Ca3Sm,0.103895753749998,0.103895753749998,0.0,True,FM,0.308593,225
mp-30482,Ca3Tl,-0.20250374249999903,0.06801449499999901,0.0,False,NM,2.1e-06,225
mp-1183533,Ca3U,0.6742638200000031,0.6742638200000031,0.0,True,FM,4.0025225,225
mp-1183487,Ca3Y,0.12256259833333301,0.12256259833333301,0.0,False,NM,0.1612712,225
mp-1039454,Ca3Zn,0.05027993,0.18418108375,0.0,False,NM,0.0006950999999990001,225
mp-989399,Ca6Al2NF,-0.964665896999999,0.050451286118332,0.0,False,NM,0.3671041,225
mp-1019564,Ca6Ge2O,-1.07049463611111,0.08344484472222201,0.28140000000000004,False,NM,0.0008167,225
mp-755421,Ca6HfO8,-3.4754916406666663,0.002167308666663,4.1479,False,NM,0.0,225
mp-989404,Ca6In2NF,-1.101634703333333,0.029349273566177003,0.0,False,NM,0.2778857,225
mp-989582,Ca6Pb2SeN,-0.9577871257343731,0.027057535874999,0.0,False,NM,0.0278664,225
mp-989590,Ca6Sn2NF,-1.314570633,0.0,0.132299999999999,False,NM,0.000113399999999,225
mp-989584,Ca6Sn2NO,-1.306336873999998,0.0,0.0,False,NM,0.0123771,225
mp-10008,Ca7Ge,-0.044570664999999,0.223534511249999,0.0,False,NM,0.0666447,225
mp-1183474,CaAcAu2,-0.852907361874997,0.0,0.0,False,NM,3e-07,225
mp-1183472,CaAcGa2,-0.493078181875002,0.093226234853947,0.0,False,NM,6.4e-06,225
mp-865173,CaAcHg2,-0.612949323125008,0.0,0.0,False,NM,1e-07,225
mp-985450,CaAcIn2,-0.562932201875,0.0,0.0,False,NM,3.1400000000000004e-05,225
mp-1183488,CaAcMg2,-0.076156435624999,0.0,0.0,False,NM,9.2e-05,225
mp-1183483,CaAcRh2,-0.453061799374999,0.0,0.0,False,NM,1.6800000000000002e-05,225
mp-1183500,CaAcTl2,-0.506917204375,0.0,0.0,False,NM,4e-06,225
mp-864962,CaAcZn2,-0.272621318124999,0.0,0.0,False,NM,4.9000000000000005e-06,225
mp-865729,CaAg2Sn,-0.34129738208333105,0.05023456958333301,0.0,False,NM,5.85e-05,225
mp-1183471,CaAg3,-0.15612301624999902,0.079727694999998,0.0,False,NM,0.0,225
mp-1233547,CaAg4(RuO3)4,-0.9764866626984121,0.32472874833332804,0.0,False,NM,0.000373099999999,216
mp-984704,CaAgHg2,-0.346949062500002,0.041343023749995,0.0,False,NM,3.1e-06,225
mp-961647,CaAgP,-0.17562905765873102,0.6831853155555551,0.0,False,NM,7.740000000000001e-05,216
mp-1183462,CaAu3,-0.5512218575000031,0.062353614999999,0.0,False,NM,1e-07,225
mp-568920,CaAu5,-0.452440076666666,0.0,0.0,False,NM,0.0,216
mp-568398,CaBiAu,-0.8070770083333371,0.0,0.0,False,NM,1.4e-06,216
mp-1213974,CaBiAu4,-0.43226899416667103,0.007945689374999001,0.0,False,NM,9.499999999999994e-06,216
mp-631550,CaBiB,0.849236478055549,1.535715601018513,0.07779999999999901,False,NM,0.001768499999999,216
mp-977540,CaBiPd2,-0.59808100375,0.050311544017862,0.0,False,NM,9e-07,225
mp-1213965,CaC,1.03262592625,1.136148451249999,0.0,True,FM,1.9690760999999992,225
mp-866010,CaCdAu2,-0.5571728124999971,0.0,0.0,False,NM,4.599999999999997e-06,225
mp-866104,CaCdHg2,-0.35914281875000303,0.0,0.0,False,NM,1e-06,225
mp-866279,CaCdPd2,-0.557560404999998,0.021220550937500002,0.0,False,NM,0.0003409,225
mp-962078,CaCdSi,-0.084177969999998,0.255967826111111,0.0,False,NM,0.0009607,216
mp-1100411,CaCdSn,-0.39687956833333204,0.09016369222222201,0.0,False,NM,0.0012259,216
mp-865460,CaCeAg2,-0.19449022833333002,0.037822081874999004,0.0,True,FM,1.2157879,225
mp-1183527,CaCeCd2,-0.23606667249999802,0.017672027500001002,0.0,True,FM,0.953523,225
mp-1522640,CaCeEuGeO6,-3.011537938000001,0.238693442333325,0.2682,True,FM,6.8297707,216
mp-866040,CaCeHg2,-0.577729531249999,0.0,0.0,True,FM,1.1546414,225
mp-1183677,CaCeIn2,-0.5731214125,0.0,0.0,True,FM,1.0404651,225
mp-862907,CaCeMg2,-0.001724969999999,0.08639880499999901,0.0,True,FM,1.321109399999999,225
mp-1183507,CaCePd2,-0.6816876420833321,0.038869350694444006,0.0,True,FM,0.9174751,225
mp-1183467,CaCeRh2,-0.580829026874997,0.020275681874998,0.0,False,NM,0.005635999999999,225
mp-1183614,CaCeZn2,-0.22768897000000002,0.007292694749999,0.0,True,FM,1.0248773,225
mp-1120739,CaCl2,-2.605115638333333,0.042185430833333,4.8803,False,NM,0.0,225
mp-1227230,CaDyAl4,-0.44790140916666604,0.023222162499999,0.0,False,NM,0.004992799999999,216
mp-866228,CaDyHg2,-0.602105964999999,0.0,0.0,False,NM,8.8e-06,225
mp-1519764,CaDyMnSnO6,-2.3435437824597702,0.532457370083336,0.0,True,FiM,2.0027384,216
mp-1521389,CaDyMnSnO6,-2.17690630445977,0.6990948480833351,0.0,True,FM,2.0554628,216
mp-866216,CaDyRh2,-0.616526022916663,0.0,0.0,False,NM,2.899999999999999e-06,225
mp-1183478,CaDyZn2,-0.29476759541666503,0.0044779662499980005,0.0,False,NM,4.7e-06,225
mp-1227226,CaErAl4,-0.43790456472222106,0.026239383333333,0.0,False,NM,0.0040338,216
mp-865169,CaErRh2,-0.643581572499999,0.00506521798611,0.0,False,NM,2e-06,225
mp-1205634,CaEu2WO6,-2.912938223000002,0.14217176741666102,0.6178,True,FM,14.0047326,225
mp-1183671,CaEu3,0.036653108749998005,0.036653108749998005,0.0,True,FM,23.7652702,225
mp-1523034,CaEuAlBiO6,-2.593253121499999,0.26875568134375705,0.0,True,FM,6.7412538,216
mp-1183508,CaEuCd2,-0.32192749875000004,0.005196399999999,0.0,True,FM,7.2695211,225
mp-1521154,CaEuCrSbO6,-2.596469224499999,0.149602690999998,0.0,True,FM,10.0000003,216
mp-1519833,CaEuDyNiO6,-2.493873161666666,0.281397791624998,0.0,True,FM,6.0038378,216
mp-1520954,CaEuDyVO6,-3.089918915666667,0.24138598045533702,9.999999999976698e-05,True,FM,7.0134281,216
mp-1183606,CaEuGa2,-0.49893524875000106,0.036497408125001005,0.0,True,FM,6.949856299999999,225
mp-1516953,CaEuGdSbO6,-2.9114742825000013,0.20413924326666502,0.210599999999999,True,AFM,3e-07,216
mp-1227207,CaEuH6Ru,-0.6953411086111091,0.0037550911111110005,0.2073,True,FM,7.0003797,216
mp-1517115,CaEuHfFeO6,-2.986229727499999,0.21230528149999903,0.0,True,FM,11.0000007,216
mp-1518409,CaEuHfGaO6,-3.12143121425,0.22603187806249803,0.0,True,FM,5.9999959,216
mp-1522808,CaEuHfNbO6,-3.359240147499999,0.13301374258334,0.0,True,FiM,6.481245,216
mp-1518261,CaEuHfSnO6,-3.118291994,0.137816318999993,0.23399999999999901,True,FM,6.9999999,216
mp-1519554,CaEuHfTiO6,-3.597182150833333,0.0925478675,0.0,True,FM,7.0000165,216
mp-1519493,CaEuHfVO6,-3.2651381615,0.14026093256250102,0.0,True,FM,8.0000001,216
mp-1522800,CaEuHfWO6,-3.0406115275,0.20639864654167,0.0,True,FM,8.999998699999999,216
mp-1522072,CaEuHfZrO6,-3.6019453195,0.128619155250001,0.39770000000000005,True,FM,6.9999998,216
mp-1183530,CaEuHg2,-0.601035267500002,0.001617392499994,0.0,True,FM,7.2029574,225
mp-865553,CaEuIn2,-0.45753694458333405,0.004127709374998,0.0,True,FM,6.9975468,225
mp-1519852,CaEuInFeO6,-2.208624451166666,0.26544505025000104,0.0,True,FM,10.0000006,216
mp-1522875,CaEuInSbO6,-2.447297563166667,0.189634653600004,0.0,True,FM,6.8927635,216
mp-1183637,CaEuMg2,-0.036846491249999,0.028545801249998,0.0,True,FM,7.469881,225
mp-1516567,CaEuMgBiO6,-2.3613614280000013,0.23970491099998903,0.0,True,FM,6.0000004,216
mp-1520122,CaEuMgNbO6,-3.077558317,0.205035228625002,0.0,True,FM,5.9999829,216
mp-1517301,CaEuMnWO6,-2.646220813293102,0.114910687250002,0.28399999999999903,True,FM,11.999452699999999,216
mp-1521619,CaEuNbFeO6,-2.8604638795,0.11077170962500701,0.0,True,FM,11.7352481,216
mp-1518158,CaEuNbWO6,-2.785012426499999,0.20452265622916402,0.0,True,FM,9.984314,216
mp-1519259,CaEuNbZnO6,-2.776450067499999,0.256661466624997,0.0,True,FM,6.0528268,216
mp-1521776,CaEuNiBiO6,-1.9591156165,0.27853057133333203,0.0,True,FiM,4.7662214,216
mp-1522056,CaEuTiSnO6,-3.006452671333334,0.12008583875001601,0.28589999999999904,True,FM,7.0010135,216
mp-1183609,CaEuTl2,-0.5407482587500071,0.0,0.0,True,FM,6.9951085,225
mp-1517070,CaEuYNbO6,-3.2931489335000013,0.17659701934115501,0.284699999999999,True,FM,7.0000002,216
mp-1517247,CaEuYSbO6,-2.9449118155000003,0.181193083156234,0.15200000000000002,True,FM,7.0000001,216
mp-1517862,CaEuYVO6,-3.074093435499999,0.24441799639284,0.0,True,FM,6.9999997,216
mp-1183574,CaEuZn2,-0.25548029875,0.0,0.0,True,FM,7.3665275,225
mp-1519008,CaEuZnSbO6,-2.3869973705,0.259421973999993,0.0,True,FM,6.0054086,216
mp-1519369,CaEuZrCrO6,-3.088078552499999,0.215139414500004,0.0,True,FM,9.0000005,216
mp-1522936,CaEuZrGaO6,-3.026413273250001,0.24904920006250103,0.0,True,FM,6.0001332,216
mp-1521618,CaEuZrMnO6,-3.025417653293105,0.18222741850000101,0.0,True,FM,10.0000002,216
mp-1519002,CaEuZrNbO6,-3.2841151115000002,0.143949902625012,0.0,True,FM,6.7208012,216
mp-1519892,CaEuZrSnO6,-3.031866485999999,0.156720674249996,0.375,True,FM,6.9999998,216
mp-1518717,CaEuZrTiO6,-3.507781140833335,0.10656738074999801,0.0,True,FM,7.0027481,216
mp-1518352,CaEuZrVO6,-3.178246432500001,0.153132604000003,0.0,True,FM,8.0000005,216
mp-1519275,CaEuZrWO6,-2.9542672465,0.23088494179166202,0.0,True,FM,9.0000002,216
mp-2741,CaF2,-4.22225448,0.0,7.1157,False,NM,1e-06,225
mp-1385922,CaFeWO6,-2.141004369999999,0.15056235750000102,0.0,True,FM,6.0035849,216
mp-1183618,CaGdCd2,-0.32740001499999805,0.0036371950000010003,0.0,True,FM,7.3290502,225
mp-867315,CaGdHg2,-0.572022508750002,0.0,0.0,True,FM,7.2432814,225
mp-1183613,CaGdPd2,-0.7416662474999991,0.011971799861104,0.0,True,FM,7.2229605,225
mp-1183601,CaGdRh2,-0.5728695300000021,0.014673115749992001,0.0,True,FM,7.1410647,225
mp-1183638,CaGdZn2,-0.29766247499999904,0.009470524749998,0.0,True,FM,7.3759885,225
mp-1183578,CaH3,-0.195465657499999,0.30469550125,0.0,False,NM,0.0007947,225
mp-1227052,CaHF,-2.426918358749999,0.02062701,4.674,False,NM,0.002610399999999,216
mp-631479,CaHfBe,0.723478678333334,0.815233761333334,0.0,False,NM,0.0003231,216